! Touchstone file exported from HFSS 2024.1.1
!        File:           D:/AEDT_Default/Farfield/Array/Horn_multimode.aedt
!        Generated:      08:10:55 AM Jul  4, 2024
!        Design:         Horn_array
!        Project:        Horn_multimode
!        Setup:          Setup1
!        Solution:       Sweep
!
! Variables:
!        CosinePower = 1
!        EdgeTaperLevel_dB = -200
!        PC = -0.3
!        ScanAnglePhi = 0deg
!        ScanAngleTheta = 0deg
!        ScanFrequency = 31000000000Hz
!        ScanMag1 = 1W
!        ScanMag2 = 1W
!        ScanPhase1 = 0deg
!        ScanPhase2 = 0deg
!        ScanPhaseShiftA = -((ScanFrequency*0.0*sin(ScanAngleTheta)*cos(ScanAnglePhi)) + (ScanFrequency*3.87965748767e-10*sin(ScanAngleTheta)*sin(ScanAnglePhi))) rad
!        ScanPhaseShiftB = -((ScanFrequency*3.87965748767e-10*sin(ScanAngleTheta)*cos(ScanAnglePhi)) + (ScanFrequency*0.0*sin(ScanAngleTheta)*sin(ScanAnglePhi))) rad
!        fc = 30GHz
!        hA = 0.5
!        hB = 0.585
!        hC = 0.661
!        hD = 2.3
!        lc = 1e3*c0/fc mm
!        rA = 0.51
!        rB = 0.687
!        rC = 0.805
!        rD = 0.822
!        w = 0.02
!
# GHz S MA R 50.000000
! Terminal data exported
! Port[1] = A[1,1]1:1
! Port[2] = A[1,1]1:2
! Port[3] = A[1,2]1:1
! Port[4] = A[1,2]1:2
! Port[5] = A[1,3]1:1
! Port[6] = A[1,3]1:2
! Port[7] = A[1,4]1:1
! Port[8] = A[1,4]1:2
! Port[9] = A[1,5]1:1
! Port[10] = A[1,5]1:2
! Port[11] = A[2,1]1:1
! Port[12] = A[2,1]1:2
! Port[13] = A[2,2]1:1
! Port[14] = A[2,2]1:2
! Port[15] = A[2,3]1:1
! Port[16] = A[2,3]1:2
! Port[17] = A[2,4]1:1
! Port[18] = A[2,4]1:2
! Port[19] = A[2,5]1:1
! Port[20] = A[2,5]1:2
! Port[21] = A[3,1]1:1
! Port[22] = A[3,1]1:2
! Port[23] = A[3,2]1:1
! Port[24] = A[3,2]1:2
! Port[25] = A[3,3]1:1
! Port[26] = A[3,3]1:2
! Port[27] = A[3,4]1:1
! Port[28] = A[3,4]1:2
! Port[29] = A[3,5]1:1
! Port[30] = A[3,5]1:2
! Port[31] = A[4,1]1:1
! Port[32] = A[4,1]1:2
! Port[33] = A[4,2]1:1
! Port[34] = A[4,2]1:2
! Port[35] = A[4,3]1:1
! Port[36] = A[4,3]1:2
! Port[37] = A[4,4]1:1
! Port[38] = A[4,4]1:2
! Port[39] = A[4,5]1:1
! Port[40] = A[4,5]1:2
30                             0.807294073562444 -0.881381638395066 0.000806015586575346 150.733721428955 0.000196164582546362 81.4193895784199 4.7929900297609E-05 54.5408752287212 
                               3.44880200238549E-05 84.2403860672952 7.12372278541098E-06 157.682705176783 7.22888063527576E-06 133.762452881177 6.14115394828079E-06 149.588257775184 
                               6.63988717618196E-06 150.236298494588 6.14122018714685E-06 155.33334522097  0.000738607260200492 -111.343340686162 3.92860981280211E-05 -141.507687491466 
                               8.58651537867059E-05 -5.62080776469931 6.91640430585212E-05 -171.050795261457 1.39622768021921E-05 52.026027225643  9.46842857793681E-06 42.3088145975198 
                               4.72338598322799E-06 -4.22026811188174 5.57223796915369E-06 1.3971834472327  3.723814610929E-06 3.7901835393745  4.05961228212729E-06 7.91636319976765 
                               2.42580598822892E-05 77.8792900378363 2.40519827837939E-06 153.246783321414 5.72718877271642E-06 -52.0632845115719 7.06117846956771E-06 50.9015105615439 
                               2.69500034602346E-06 -8.64405004209166 1.13713881517354E-06 28.1865360387394 5.47678963753999E-07 -41.8342337231831 7.42003988092589E-07 -64.7609789582809 
                               1.18263916729621E-06 -55.385275398982 7.87666144901942E-07 -48.4224686735975 6.97006678754472E-06 -164.699835539387 3.70277944729182E-06 -144.158733139821 
                               5.47897993305263E-07 -156.939081892264 8.75001337363597E-07 -82.2463038592907 1.27078578215875E-06 21.2049311513268 1.16676754432249E-06 -7.97289323463307 
                               1.53387169123223E-06 30.6183673888721 7.70856655836699E-07 -24.7647386902474 1.52713888923534E-06 19.9397617425351 6.96192584468032E-07 20.9715869700201 
                               0.00082186595250938 150.080368761844 0.806988753734234 -0.979623547957305 3.55686195705033E-05 -110.433857613728 0.000731727720782976 -113.012739567339 
                               3.79983203786293E-06 -110.920485010574 1.7797282335021E-05 69.2139587696059 5.09513742933779E-06 -96.934764868999 5.39727853181041E-06 -128.189146794556 
                               4.54110961395658E-06 -86.2472554124789 4.54068366484819E-06 -91.9228924544947 3.33062178988779E-05 46.5515942839979 0.000197316243427028 73.2828731476717 
                               8.16550529914674E-05 -172.540387030015 8.577339783717E-05 -6.62011690764996 9.64060115372203E-06 72.0535873051298 2.41332587358156E-06 -34.9238048941488 
                               2.68381508742171E-06 68.2333836164491 1.87252207193486E-06 77.0584757950863 3.03134574641655E-06 137.939031849615 2.78419472591722E-06 139.088780734806 
                               3.49516426258668E-06 2.54763943170304 3.15684402731613E-05 57.2049331944207 9.52932731098816E-06 32.7392482379392 1.17730059800435E-05 54.9331442870747 
                               5.12089441510047E-06 4.6888605527782  5.67945167832896E-06 -22.4814218316354 4.38861215072958E-06 -11.8168238140536 4.64824586751005E-06 -10.2476202588542 
                               4.69938147055329E-06 -27.1243761290263 4.12953174536527E-06 -23.1832951752663 4.20953840010517E-06 50.9634838440073 3.43766704179491E-06 57.3530709399535 
                               2.05869807906292E-07 -106.540112521464 1.5553859641825E-07 -145.937793414813 8.52815662250184E-07 -130.574785332316 8.26289315667376E-07 -121.307736456583 
                               1.04770437694644E-06 -115.363260384027 3.20583994479973E-07 -150.914190033599 9.46645459923018E-07 -123.98531889107 6.16464200077681E-07 -111.766164478113 
                               0.000192254889302423 80.5062933136218 3.84221377353827E-05 -102.57980787745 0.807255745816044 -0.880370510251871 0.000816987545981856 152.078197240942 
                               0.000193268499719912 81.5343219456365 4.27640226011742E-05 54.1808616862715 2.75898359077759E-05 78.4752875165543 4.63439245065149E-06 -134.290039221024 
                               2.64195016628094E-06 -149.855053577629 4.32140354075426E-06 -137.669260504366 8.97464389392365E-05 -4.46125715262294 7.87294710320649E-05 11.1203996913976 
                               0.000765880936438207 -112.507021474593 9.27187315334236E-06 136.762012399646 7.60448748322632E-05 -4.77996424881884 7.46967216446458E-05 -171.252172199862 
                               1.12188225307398E-05 83.9594136852356 6.84081710429507E-06 75.4453986515052 1.81890276605275E-06 -112.851248958524 7.2642474759566E-07 -136.52390558329 
                               8.60186268172646E-06 -23.1870467365564 3.47885857747469E-06 -94.6190659371571 2.46737342765504E-05 86.5765593868087 4.31239928826758E-06 -7.87315782032156 
                               6.62444603354543E-06 -33.7591881654878 8.05468319825567E-06 45.9676068863402 3.95534614694248E-06 7.04693941073448 2.22619713983342E-06 32.9572970163853 
                               1.92735854619726E-06 4.54003196155653 2.11897126404519E-06 15.0003802411025 3.18442563740082E-06 158.012021427986 2.09459353278809E-06 160.882488476906 
                               3.44099593008649E-06 -168.910701421345 9.30373814334301E-07 -91.632521035836 1.40571319844574E-06 -60.3107318596398 1.27292220149848E-06 -94.817898585091 
                               1.32788409542084E-06 -33.3897349678003 1.32715097321233E-06 -93.1658407743912 1.58675495951066E-06 -26.8441670496975 6.88666766434379E-07 -80.4762248657044 
                               5.34344699059605E-05 63.2916876157172 0.000727842627407923 -112.706994739675 0.000818504663977212 151.666068930845 0.807029937563902 -0.988843595612248 
                               3.81768415474382E-05 -106.582444978211 0.00072686761428666 -112.858413030192 3.90497954564756E-06 -173.686007712921 1.91699261890863E-05 69.5858903318861 
                               3.11665861122534E-06 -108.847989876843 4.19353737343152E-06 -142.72574593636 7.78154571723338E-05 3.72443908359683 7.86373971534985E-05 -10.0969435521749 
                               1.26291646742465E-05 -98.2047231124052 0.000231120050705958 64.593555236615  8.5185208266981E-05 -172.311762558648 8.58132270886607E-05 -8.24917309366222 
                               5.13673315529181E-06 77.912128778454  5.21517083087352E-06 -69.4740069396741 2.22802169748432E-06 -157.172754913018 3.63657519353055E-06 -152.106653279804 
                               3.28663203622011E-06 -125.322647743452 1.05395878413439E-05 65.3389498436929 2.7097985618074E-06 -16.9019099409935 3.19527552403931E-05 49.9567151794909 
                               7.94894649988291E-06 35.5859119235186 1.12673163495457E-05 67.3111475968365 2.74883749686827E-06 17.5935598181504 3.93190882558699E-06 -9.27305727295439 
                               2.75410427213629E-06 -31.9961068071392 2.19135462158819E-06 -15.4969364478442 3.04451061818362E-06 -82.2572268170077 2.2992811547934E-06 -164.381710698301 
                               9.34509702099456E-07 -160.126355644981 2.28563866011175E-06 60.7753163960981 1.37974877087702E-07 -50.5126767302837 5.92794357970012E-07 -43.4007898365531 
                               3.95398473805747E-07 -179.090164782361 4.63913419492619E-07 -2.92020533582164 5.69053753186454E-07 -168.580590259805 2.06415815392963E-07 79.0642652421004 
                               3.84905029274676E-05 73.0634842058208 5.00940439026292E-06 149.756202518391 0.000192800503969029 80.2607330668559 4.01722641389491E-05 -103.563709376783 
                               0.807273644665396 -0.880818893524226 0.000815480633358344 151.716916570437 0.000200590026146238 80.4057233344671 4.45833597046059E-05 51.7855007531073 
                               3.02152295080709E-05 74.3181974471159 3.72015883683474E-06 -64.222683633713 1.48244543419347E-05 80.1844267482475 7.35974189267952E-06 -125.515439893943 
                               8.13931154665127E-05 -9.00109623746406 7.61787301547098E-05 6.40869846595397 0.000768722106907631 -112.611645491303 6.50747328512256E-06 133.831774149338 
                               7.82730255908657E-05 -8.04647449100629 7.45402668598661E-05 -169.765966143302 1.09188526523461E-05 82.0514263623832 6.51793399739566E-06 66.3506966095277 
                               2.81846948615659E-06 51.1349061649233 1.58841724857419E-06 -40.0756932100872 7.0105888563065E-06 -40.2375036213074 5.2303101698055E-06 -103.958587047165 
                               2.38375967337939E-05 89.2928487681765 3.32782571217356E-06 -19.4997832560775 7.18853178273755E-06 -39.4908073715109 6.57293448891487E-06 46.7023068349815 
                               3.89307173011718E-06 -3.20776421257091 1.81237616241181E-06 29.1748149820663 8.17226064620892E-06 177.721523328935 2.69774317061309E-06 -151.594357755491 
                               7.20863032467159E-07 53.5496900044143 1.23786860702148E-06 -71.7984237975164 1.92150753365568E-06 177.035873749827 1.65634276484412E-06 -30.0716523249358 
                               2.41504714637411E-06 13.046381912191  1.67604223368537E-06 -40.9144265541351 2.91846648125134E-06 15.2713132650839 1.62290682062285E-06 -11.4680154805273 
                               2.30239595002201E-06 120.525802694539 2.24010719711112E-05 68.1420947636649 4.66783560029025E-05 52.6756631328987 0.000732184924914284 -113.088660884202 
                               0.000818739819646539 151.364188272667 0.807025866061931 -0.989710589180488 3.61799919674913E-05 -104.000209756293 0.000724405197655243 -113.079238297251 
                               2.17940831385607E-06 138.188749814987 2.31194670442462E-05 69.3920096483566 8.29948451090515E-06 -125.044200995206 7.01063011172782E-06 -54.0800398423961 
                               8.50719876440286E-05 1.23636462538226 8.44734347226456E-05 -9.11728546871467 1.0136095582558E-05 -99.4176886800774 0.000232741524298652 64.2671776674287 
                               8.32386735859984E-05 -171.650269052337 8.56018729519507E-05 -7.59585879799349 7.61633411757248E-06 88.4422038514974 3.83586132224073E-06 -68.3422109965075 
                               2.71250921242134E-06 -131.961925432947 3.83884326551459E-06 6.57767787979079 7.49867199575339E-06 -125.41671985258 1.06946217397813E-05 79.2196564241964 
                               7.48649849747205E-07 -26.107955080293 3.20107624611177E-05 57.6771561941811 7.05223309965177E-06 41.7971652830304 1.08615544974765E-05 79.5411488311535 
                               1.33078840080717E-06 13.5336698916149 2.11556541123075E-06 -3.38148269607931 8.32067809719041E-06 -26.0603245226064 7.81408882915191E-07 64.1155197750585 
                               2.17125719796439E-06 175.013877067793 7.67333898236609E-07 148.845104131794 1.91781161775999E-06 -174.310379896986 2.32311779157531E-06 94.6789599215287 
                               1.77435983148424E-06 -167.15722864424 5.60438735223164E-07 156.438427042609 1.90122110866307E-06 -175.853976430989 1.28410733027457E-06 170.329387430646 
                               5.67199689771184E-06 105.932074962133 4.68562325549142E-06 -162.23464252021 3.09747258554543E-05 67.4403095408321 3.82870323044315E-06 174.144531520023 
                               0.000196830646357499 80.2382457315209 4.11074494918207E-05 -104.255815952092 0.807263282099416 -0.880698529488783 0.000817354623668665 151.708439148216 
                               0.000201960950579223 80.060284411893  4.4896256155932E-05 50.9834523867226 4.08290754040604E-06 -129.40891361421 4.54311341170551E-06 -132.228244787079 
                               1.0852456107232E-05 72.1823900480975 9.86457847716246E-06 -116.351652549572 8.14615139511007E-05 -9.1735716336927 7.5079325553924E-05 5.40713816879386 
                               0.000770099827661642 -112.4798908483  4.75882050176581E-06 142.081702131039 8.07078203399358E-05 -9.08741077386636 7.21367228167241E-05 -170.720041632223 
                               3.4679158373647E-06 109.030954229117 1.92085871592986E-06 65.9558978804142 4.30787671897531E-06 -3.92672005462565 2.9482315348761E-06 -37.6904497764706 
                               7.64119229360468E-06 -33.054280873428 5.82831358986028E-06 -103.812637217815 2.38270599949493E-05 85.0810153076755 4.41080377806821E-06 -26.6077400179511 
                               7.05367277138562E-06 -40.2426636120469 7.47193911163556E-06 59.5383245897915 2.26071063759696E-07 69.7791606622462 2.41082010652905E-06 -111.680501684978 
                               3.30582835478577E-07 149.291709108312 8.21129325877637E-07 -129.149942991737 4.93912853723245E-07 -177.283864588177 6.08562341160094E-07 -150.584524058971 
                               3.9606792793174E-06 -179.214278972073 3.76157125140018E-07 -124.661171890391 1.27857470470335E-07 87.8202686350894 1.41364586206303E-07 -10.0609867615086 
                               3.91701804628538E-06 124.165644227034 2.2906677275998E-06 -143.892597003801 7.71730847728011E-07 -43.4186231141636 2.01897054591011E-05 70.1487173829408 
                               4.62884664560526E-05 55.6000327162485 0.000733236256886131 -112.70975947164 0.000814745570828145 151.61299573369  0.807021598667166 -0.990031659608852 
                               3.67221586771981E-05 -103.585249390667 0.000728330390255857 -112.619635844595 5.03269125528286E-06 -178.186404933978 2.17248991341229E-07 -79.0061279645641 
                               7.35540454895136E-06 -119.287262943683 5.91332809029745E-06 -59.9038940512039 8.39984756695026E-05 2.37242785599312 8.32680617889964E-05 -7.19319676399679 
                               9.95888754307103E-06 -106.425164229926 0.000226483147861717 63.9199166741142 7.99943092899173E-05 -173.539240410945 8.58298454425884E-05 -8.08848084970335 
                               2.371202840164E-06 140.588993596604 1.39555943385596E-06 7.16528585412969 2.19322690509893E-06 -100.118494460034 3.65848313015123E-06 16.6071954536157 
                               6.38396739444091E-06 -124.433973507333 1.14303852561116E-05 78.852781347736  1.14119944076332E-06 60.8312307525099 3.12369513110263E-05 55.1877372741517 
                               8.77905993637581E-06 52.2529080492505 1.15101595358304E-05 82.8849969963284 2.24574950296869E-06 -89.9618316116586 1.34720520893154E-06 111.281418978883 
                               2.25230612043792E-07 88.1724599120612 2.64535189262123E-07 -36.5334795360781 1.60677642061951E-06 -149.323890257669 9.8627283752256E-07 -75.666878913292 
                               5.98779367802293E-07 168.408831556829 2.82440541439552E-06 58.5504104864955 3.49304648386645E-07 -162.89037885799 5.0773920793823E-07 -45.2143329524579 
                               1.13981593213425E-06 -168.872448740816 1.96723704149809E-06 -100.606395069341 2.78145216484437E-06 -5.8009964686267 2.14065085376625E-06 -82.5229401872389 
                               3.28814485687816E-05 64.2417620484948 2.37631969032327E-06 153.821203075416 0.000197449427382684 80.2136020084493 3.91578422870842E-05 -101.437019605429 
                               0.807264630386111 -0.880652291636245 0.00082927526436755 152.393947491675 3.74355477284555E-06 -97.2845859628273 2.56963115594218E-06 -99.8813226527069 
                               3.38701228905774E-06 -70.9390004578786 2.16993880301365E-06 -90.5553181882713 1.22754474130389E-05 67.2003806263515 8.60830112595649E-06 -118.963000857581 
                               8.5285884863888E-05 -8.34364210808429 7.94108805502042E-05 6.15087259348893 0.000733613374543745 -111.496394379858 3.62216016714598E-05 55.6878385168453 
                               2.14231416201095E-06 -133.464858586176 4.36534697964607E-07 148.77180750587  1.09872119491077E-06 167.439101597426 1.90363902196279E-06 20.1112886400022 
                               2.66203525086641E-06 11.6782927866753 1.40881631177633E-06 -21.9372847594211 5.92584188887872E-06 -36.0751016209066 4.39216594710569E-06 -114.650289439501 
                               2.68546525720956E-05 72.5224150094521 5.45576169994078E-06 -27.1278929455757 9.23668243782515E-07 -135.682259698822 8.9600589870052E-07 -95.8249522115074 
                               3.61717884890974E-07 105.480056222891 2.39530170791123E-07 -125.007630042867 9.03245522927156E-07 70.4729139435126 2.0129977659381E-07 147.175365105064 
                               9.09463420669822E-07 177.643850803984 5.59213654492799E-07 -154.971286155979 3.30034245192878E-06 165.594757223443 7.9447114275251E-07 35.7665729375155 
                               5.93638011073035E-06 172.519945932994 1.06444495918101E-06 -143.054973326587 1.71382781142878E-06 53.3949273305521 2.51663282724014E-06 -149.556334680973 
                               1.57552074741458E-06 -37.8827450793299 2.15293507488319E-05 70.3971364781746 4.42189464154821E-05 53.0658273616534 0.000733334567600242 -112.469364463459 
                               0.000829328021706764 152.374388960609 0.806984263943269 -0.980601465564967 5.33613853284976E-06 -161.945303246382 1.27719238992022E-06 -73.3631323423796 
                               3.15412365382057E-06 -107.601760877115 2.70600804510194E-06 -60.2231055342156 7.96985457847061E-06 -112.702350419908 7.00334471595291E-06 -49.3763987483351 
                               8.42965746152343E-05 2.0094042869837  8.17388130040458E-05 -4.32926532671171 5.46057645120689E-05 -128.221360698415 0.00019831840761901 71.6116561149249 
                               4.46414629820319E-06 178.494079664492 7.56168706342966E-07 -32.7570254553438 2.57446555932861E-06 10.5066969095255 1.5835179393743E-06 -1.3462528621804 
                               2.13762833597753E-06 -66.6506400735621 3.96166831361212E-06 4.28671415101689 6.76389207421415E-06 -115.677162058133 1.10558637416103E-05 75.0181311704791 
                               2.6576969491908E-06 100.769763698154 3.14715634243088E-05 65.1252393278095 3.51560264837636E-06 -59.7825657966568 3.08358315073634E-07 94.2513009158537 
                               8.19248012701385E-07 126.723184845027 5.02909765052434E-07 97.46767080315   7.60373932787184E-07 133.736372627204 8.16851231024073E-07 174.680709524286 
                               1.74778076287543E-06 -175.413931188892 4.81594835711061E-07 -114.3347362604  1.43033565578721E-06 173.70215485566  2.2375670050721E-06 81.7087118754071 
                               0.000736635574699123 -110.906396820426 3.51529530614907E-05 34.5593541781191 8.84200728263026E-05 -7.49374940804234 8.05246127224631E-05 5.16044199068085 
                               1.35808190537524E-05 82.6691578481323 6.28205809774609E-06 -138.517994153456 3.09374753248435E-07 -41.8654904727928 9.47907352697059E-07 145.184172975829 
                               8.47787118318751E-07 38.9559846305949 5.20436206012334E-07 88.7097664758423 0.807341092889198 -0.890144919020471 0.0008106302227623 151.866740471168 
                               0.000222753205042898 71.605430552337  1.21974174852753E-05 131.531707415594 3.03143388695872E-05 63.4181962917299 5.59098024971376E-06 178.375238858579 
                               2.86087590405904E-06 95.6781583357101 3.47182478393049E-06 173.566779516289 3.00947070643673E-06 178.02305989128  3.04318926985702E-06 -175.653792405149 
                               0.000733076864419118 -111.30555467616 4.36258775929826E-05 -139.897784644065 8.1148139806785E-05 -7.81460960131397 7.63110281932131E-05 -170.050797038517 
                               1.00676988095584E-05 67.3871898372375 6.09032516814683E-06 55.3760422712435 2.31289140228635E-06 -57.9152046222343 1.17444955252849E-06 -45.3743438580923 
                               1.21073385885759E-06 -116.883260020386 5.30801303464989E-07 -163.357204931679 2.09610549399488E-05 90.5945478893353 4.34089014449449E-06 -179.334667152045 
                               3.26258859248324E-06 -36.8008988223201 6.68828019456063E-06 56.4894255024298 3.3185645935324E-06 29.6700598185463 3.20700832037203E-06 14.2186016480292 
                               2.20943878060371E-06 55.6707764286595 1.74690189879382E-06 -18.3302718967346 2.51919044345327E-06 47.0445391675849 1.42458886472873E-06 7.65143916505978 
                               3.50077417575538E-05 -146.073280564831 0.000193240228630232 73.5366398952365 7.71545519183476E-05 7.22866360896996 8.36938853915506E-05 -6.88873206449232 
                               7.65247113808948E-06 -132.364957103242 5.87724261629779E-06 -59.8384143368474 1.17916447948864E-06 -114.086238694059 1.65490277356115E-06 -102.220542031956 
                               1.51571059521793E-06 -87.3800610505457 1.49277485410458E-06 -83.9029925342964 0.00081746094925665 151.557816810768 0.806963452712215 -0.980496360557819 
                               2.3365962188018E-05 -24.4166758896898 0.000763179888129231 -113.727342757565 2.12482618935587E-06 -115.339395926597 1.68598315942517E-05 92.3021798401467 
                               1.86176848478541E-06 -75.2821421799727 4.3753688914847E-06 -145.53092404664 3.84067251511095E-06 -130.160578607808 4.24168247714818E-06 -124.267990963914 
                               3.63717875196148E-05 47.0259457359682 0.00020029361788231 73.4186778720689 8.21638034232125E-05 -171.049296291487 8.50113573512102E-05 -9.71178565275898 
                               7.71434986844855E-06 54.345288695679  7.12381235170238E-06 -55.2497564262268 2.88538186987857E-06 12.23748444658   1.78582607643865E-06 -37.7646825099153 
                               9.65142246895985E-07 -90.6856325888168 5.23176232985725E-07 -122.014373250835 1.88702368821399E-06 39.66141864217   2.99375885311912E-05 67.5345407634804 
                               6.83927103753427E-06 52.4298251276724 8.72674485396108E-06 68.2343803582421 1.59738985611831E-06 35.4947907602642 2.13285301450891E-06 6.13594311019509 
                               7.11465430919298E-07 19.477253098237  1.48613201800859E-06 -12.8362417119754 1.40367909341227E-06 -9.13859235450785 1.36094480597695E-06 -19.342649249755 
                               9.71341432937207E-05 0.160313208855192 7.69454002521778E-05 -173.133968369516 0.000771123597894256 -112.518024286928 1.44491089423035E-05 -96.8042894315781 
                               8.80202590617315E-05 -8.43734430100212 7.93784390960094E-05 3.44262331637374 1.17684288264101E-05 71.8816076345041 7.50087205795753E-06 -107.610032780101 
                               3.60036983788646E-06 -64.0396504899441 1.52683101485502E-06 -74.5556958069476 0.00022879010343003 70.9144231804603 9.89214001491715E-06 -7.68443856707452 
                               0.80729212680019 -0.892093748919836 0.000825440949025008 151.550949701032 0.000223249776432358 71.2892447801931 1.13856711947129E-05 139.027408186529 
                               3.27522645925318E-05 67.4946976073823 5.26572674878398E-06 158.148119548212 2.17968008568756E-06 155.294668091678 6.12511557049499E-06 -159.074836439447 
                               0.000101075709917567 -5.24540988000389 8.29199714729986E-05 10.3932444532218 0.000770256263691232 -113.119443969917 6.29449105129698E-06 128.995972064052 
                               7.5816759283487E-05 -7.97590188205678 7.37696700566702E-05 -169.502474222704 9.19315091503095E-06 100.47021206782  4.30815818697825E-06 69.9208325863616 
                               3.39805635931961E-06 -91.8103859065249 1.5711294923502E-06 -103.694804309546 4.81204821993752E-06 -28.406017248571 7.00328868560073E-06 -76.9283441591557 
                               2.57574950501851E-05 83.7973208314717 1.14382504641953E-06 -29.108558758557 4.58363207077262E-06 -41.6531696762447 5.51371272869626E-06 96.8577142056815 
                               1.0246254674017E-06 25.6411580465658 8.36456106907399E-07 -88.9932833198672 7.94403276983693E-07 -111.524910622327 1.41090763393483E-06 -144.356832340497 
                               6.54145594488384E-05 -172.703511700695 9.17715017656717E-05 -2.90627109935607 1.01652824299901E-05 109.778190795827 0.000239007152611016 64.4456798464487 
                               7.52809929437875E-05 9.13818273017256 8.17734345060897E-05 -5.31828483836491 7.42926532601129E-06 -118.532957426874 4.99218044874839E-06 -49.3044950160429 
                               8.39119989013244E-07 -120.491546297903 4.43136199409766E-07 -151.207392689081 7.79366845657719E-06 101.879869689775 0.000767823182077855 -113.935759529387 
                               0.000819142151559451 151.351037352234 0.807005685439567 -0.990956954878412 2.62126584168627E-05 -26.7015526105592 0.000763288758087268 -113.854213330114 
                               4.28937261941063E-06 -54.7056860303027 1.60259069132289E-05 81.6537649685792 5.17794620313084E-06 -82.0084906123118 6.95404149879599E-06 -123.813088182049 
                               7.60897134463116E-05 1.38294928163533 7.18841647178378E-05 -11.1599767932249 1.17829793231037E-05 -108.081338448632 0.000231384028403935 64.8274023697056 
                               8.66348330278285E-05 -172.449292112357 8.04148415694658E-05 -8.26799798111921 7.85880667826062E-06 111.445942998816 3.75584035070363E-06 -101.158195769477 
                               5.77905016732168E-06 178.567169193307 6.6934089129727E-06 178.549524207978 5.57133481197482E-06 -160.732243119247 1.06491301859621E-05 92.3141173799579 
                               2.85732189488913E-06 13.0148592784997 3.26957285594149E-05 68.5114071030018 7.38412244224313E-06 44.0527408038806 9.60233291481847E-06 80.6302544107808 
                               2.05039380396969E-06 -23.2634663932968 4.37504856005514E-06 -10.3213884452063 2.62216105905993E-06 -31.7474215811553 2.77282580664415E-06 -27.7822862233262 
                               2.24776215715237E-05 59.870908259464  7.8863073145722E-06 43.1966446668346 8.36127478689486E-05 -7.65441348669273 8.08235960582885E-05 -171.468868849264 
                               0.000770296562176607 -112.491642842936 1.02084621654205E-05 -99.0246781497812 8.85874021185257E-05 -7.72806878992372 7.90936795706217E-05 3.84902312456026 
                               1.3973414678127E-05 72.6309107681441 6.63143009724413E-06 -121.182317701838 4.16765147990869E-05 60.3147534980911 3.42619076704998E-06 93.3675468744798 
                               0.000220029493232912 71.782687451397  1.58297029184445E-05 -30.7791130925998 0.807298157980801 -0.891552574501306 0.000821056451362545 151.786011414883 
                               0.000221698691541391 70.8197402876806 1.10129367181773E-05 113.47513404624  3.48631211530119E-05 68.0696017467316 5.03139342664697E-06 160.234010441807 
                               1.87883522500788E-05 59.2197134973294 7.65387246603025E-06 -128.514597014493 8.13905203571932E-05 -9.66067263338304 7.61220720991853E-05 6.63813832348553 
                               0.000770838916060294 -112.885909148182 7.22961724144098E-06 133.465358237406 7.85103081008285E-05 -9.15870590509298 7.77359533117715E-05 -169.388207650956 
                               9.55099093959618E-06 87.8002309660059 6.53763959309945E-06 65.942450006709  2.13774130763655E-06 -83.1855280145466 3.66298339106519E-06 -69.1052097393061 
                               4.90904658279811E-06 -41.4127442805188 7.28508234261351E-06 -87.4190124448892 2.67291259111621E-05 84.2524880556388 2.40032980408063E-06 -1.35134137644203 
                               4.13432682877173E-06 -23.167702510802 6.76556910392567E-06 68.969547848015  2.42263827741029E-06 26.4644014314934 1.80968113756268E-06 17.1770816179971 