! Touchstone file exported from Circuit Design 2023.1.0
!        File:           C:/ansysdev/_aedt_workspace/draft/differential_microstrip.aedt
!        Generated:      2:04:14 pm  Mar 01, 2023
!        Design:         Circuit1
!        Project:        differential_microstrip
!        Setup:          LinearFrequency
!
! Variables:
!        $ms_clearance = 0.3mm
!        $ms_gap = 0.3mm
!        $ms_length = 201mm
!        $ms_width = 0.14mm
!
# GHz S MA R 50.000000
! Terminal data exported
! Port[1] = Port1
! Port[2] = Port2
! Port[3] = Port3
! Port[4] = Port4
! Port[5] = Port5
! Port[6] = Port6
! Port[7] = Port7
! Port[8] = Port8
0.1                            0.122654095765784 -6.87779256072501 0.757305676427258 96.9566015830261 0.137861149130589 8.07199397413038 0.0196109735548167 170.504837812414 
                               0.000208686908102542 4.74300179006655 0.000188853724199177 -69.8647553674738 1.24043829377552E-05 -13.1630509203269 3.95925405516547E-05 -66.1266668588522 
                               0.757305676427258 96.9566015830261 0.122654095765784 -6.877792560725  0.0196109735548167 170.504837812414 0.137861149130589 8.07199397413038 
                               0.000188853724199177 -69.8647553674738 0.000208686908102542 4.74300179006655 3.95925405516547E-05 -66.1266668588522 1.24043829377552E-05 -13.1630509203269 
                               0.137861149130589 8.07199397413038 0.0196109735548162 170.504837812415 0.122594369222847 -6.87903861909491 0.75733858834088 96.9595278103503 
                               0.00199759047304551 4.30321456447874 0.000368010938431723 -52.6202055172941 0.000208686918568325 4.74305325821331 0.000188853271607072 -69.8648350329739 
                               0.0196109735548162 170.504837812415 0.137861149130589 8.07199397413038 0.75733858834088 96.9595278103503 0.122594369222847 -6.87903861909493 
                               0.000368010938431723 -52.6202055172941 0.00199759047304551 4.30321456447874 0.000188853271607072 -69.8648350329739 0.000208686918568325 4.74305325821331 
                               0.000208686908102691 4.74300179006036 0.000188853724199004 -69.8647553675079 0.00199759047304557 4.30321456448088 0.000368010938431849 -52.6202055173071 
                               0.122594444160016 -6.8790693086968 0.75733835697123 96.9595065026597 0.137861148533348 8.07199314582859 0.0196109712240693 170.504841384999 
                               0.000188853724199004 -69.8647553675079 0.000208686908102691 4.74300179006036 0.000368010938431849 -52.6202055173072 0.00199759047304557 4.30321456448088 
                               0.757338356971231 96.9595065026597 0.122594444160015 -6.87906930869682 0.0196109712240693 170.504841384999 0.137861148533348 8.07199314582859 
                               1.24043829380842E-05 -13.1630509197358 3.95925405517025E-05 -66.1266668591816 0.000208686918568125 4.7430532582187  0.000188853271606962 -69.8648350329353 
                               0.137861148533348 8.07199314582855 0.0196109712240696 170.504841384997 0.122654023596858 -6.87776435483662 0.757305893161823 96.9566215495927 
                               3.95925405517025E-05 -66.1266668591816 1.24043829380842E-05 -13.1630509197358 0.000188853271606962 -69.8648350329353 0.000208686918568125 4.7430532582187  
                               0.0196109712240696 170.504841384997 0.137861148533348 8.07199314582855 0.757305893161823 96.9566215495927 0.122654023596858 -6.87776435483662 
! Gamma         0                0                0                0                0                0                0                0                0                0                0                0                0                0                0                0                
! Port Impedance         50               0                50               0                50               0                50               0                50               0                50               0                50               0                50               0                
0.2                            0.0560937944347663 -37.8985965323355 0.680324475414459 -158.124266212543 0.0650942364139074 -27.4243542423186 0.0344755365309868 -105.57095389855 
                               0.000108616120841651 -30.042303557053 8.78232262091463E-05 25.3044063773573 1.59959281107514E-05 -19.3965913191091 1.94761046163764E-05 22.9647474006416 
                               0.680324475414459 -158.124266212543 0.0560937944347664 -37.8985965323355 0.0344755365309868 -105.57095389855 0.0650942364139074 -27.4243542423185 
                               8.78232262091465E-05 25.3044063773573 0.000108616120841651 -30.0423035570529 1.94761046163763E-05 22.9647474006417 1.59959281107514E-05 -19.3965913191091 
                               0.0650942364139074 -27.4243542423186 0.0344755365309873 -105.57095389855 0.0560696977940411 -37.9074527805153 0.68036621000249 -158.120248084517 
                               0.000931294405364981 -24.5924322617599 0.000270905036225015 60.6309372811852 0.000108616177570395 -30.0423701087063 8.78226950478191E-05 25.3040755060913 
                               0.0344755365309873 -105.57095389855 0.0650942364139074 -27.4243542423186 0.68036621000249 -158.120248084517 0.0560696977940412 -37.9074527805152 
                               0.000270905036225015 60.6309372811853 0.000931294405364981 -24.5924322617599 8.78226950478191E-05 25.3040755060913 0.000108616177570395 -30.0423701087063 
                               0.000108616120841543 -30.0423035570036 8.78232262097094E-05 25.3044063776094 0.000931294405364834 -24.5924322617554 0.000270905036225293 60.6309372813345 
                               0.0560697043628184 -37.9074215492513 0.680365897928168 -158.120277979231 0.0650942352823692 -27.4243526904562 0.0344755324414906 -105.570954368214 
                               8.78232262097094E-05 25.3044063776093 0.000108616120841543 -30.0423035570036 0.000270905036225294 60.6309372813345 0.000931294405364834 -24.5924322617554 
                               0.680365897928168 -158.120277979231 0.0560697043628181 -37.9074215492515 0.0344755324414906 -105.570954368214 0.0650942352823693 -27.4243526904562 
                               1.59959281105174E-05 -19.3965913187783 1.94761046161203E-05 22.9647474016472 0.000108616177570306 -30.0423701086699 8.78226950481621E-05 25.3040755065878 
                               0.0650942352823693 -27.4243526904563 0.0344755324414906 -105.570954368215 0.0560937866440516 -37.8986253599984 0.680324767628881 -158.124238281027 
                               1.94761046161202E-05 22.9647474016473 1.59959281105174E-05 -19.3965913187783 8.7822695048162E-05 25.3040755065879 0.000108616177570306 -30.0423701086699 
                               0.0344755324414906 -105.570954368215 0.0650942352823693 -27.4243526904563 0.680324767628881 -158.124238281027 0.0560937866440516 -37.8986253599983 
! Gamma         0                0                0                0                0                0                0                0                0                0                0                0                0                0                0                0                
! Port Impedance         50               0                50               0                50               0                50               0                50               0                50               0                50               0                50               0                
0.3                            0.0802203203358404 14.7174848259315 0.609364439560203 -52.0192498752788 0.0999726405119063 21.4724761997373 0.0311034631701327 -1.77458681147221 
                               0.000160214777945891 17.914595847176  0.000141275796494661 159.681493442903 1.77102892505787E-05 -0.320014802317452 3.07901501559251E-05 164.883691599963 
                               0.609364439560203 -52.0192498752788 0.0802203203358405 14.7174848259315 0.0311034631701327 -1.77458681147219 0.0999726405119062 21.4724761997373 
                               0.00014127579649466 159.681493442903 0.000160214777945891 17.914595847176  3.07901501559251E-05 164.883691599963 1.77102892505787E-05 -0.320014802317448 
                               0.0999726405119062 21.4724761997373 0.0311034631701318 -1.77458681147154 0.0801759536155456 14.7217269129789 0.609413093137367 -52.0143076664992 
                               0.00147224983447556 16.8597420890181 0.000405361244011071 170.855198549468 0.000160214714032399 17.9146672489722 0.000141275033899656 159.681443296185 
                               0.0311034631701318 -1.77458681147154 0.0999726405119062 21.4724761997373 0.609413093137367 -52.0143076664992 0.0801759536155454 14.7217269129789 
                               0.000405361244011071 170.855198549468 0.00147224983447556 16.8597420890181 0.000141275033899656 159.681443296185 0.0001602147140324 17.9146672489722 
                               0.0001602147779458 17.9145958470975 0.000141275796493013 159.68149344317  0.00147224983447571 16.8597420890253 0.000405361244012771 170.855198549374 
                               0.0801760115088224 14.72167914639   0.609412738044199 -52.0143434958921 0.0999726412617219 21.4724748506404 0.031103458814296 -1.77458683439191 
                               0.000141275796493013 159.68149344317  0.0001602147779458 17.9145958470975 0.000405361244012771 170.855198549374 0.00147224983447571 16.8597420890253 
                               0.609412738044199 -52.0143434958921 0.0801760115088226 14.72167914639   0.031103458814296 -1.7745868343919 0.0999726412617219 21.4724748506404 
                               1.7710289250377E-05 -0.320014801835655 3.07901501583281E-05 164.883691597148 0.000160214714032619 17.9146672488848 0.000141275033897358 159.681443296827 
                               0.0999726412617219 21.4724748506403 0.0311034588142953 -1.77458683439189 0.080220265221125 14.7175288545834 0.609364771809234 -52.0192163434659 
                               3.0790150158328E-05 164.883691597148 1.7710289250377E-05 -0.320014801835648 0.000141275033897359 159.681443296827 0.000160214714032619 17.9146672488848 
                               0.0311034588142952 -1.77458683439183 0.099972641261722 21.4724748506403 0.609364771809234 -52.0192163434659 0.0802202652211251 14.7175288545834 
! Gamma         0                0                0                0                0                0                0                0                0                0                0                0                0                0                0                0                
! Port Impedance         50               0                50               0                50               0                50               0                50               0                50               0                50               0                50               0                
0.4                            0.0848574402405288 -19.2973936261913 0.553303986987871 56.3573963142703 0.104205018749208 -13.6684088036332 0.0373657665727821 111.049248241239 
                               0.00016548412703567 -13.4374616522004 0.000120435752496099 -112.182047790784 1.7362872547795E-05 1.84625071463176 2.78764088001929E-05 -108.787275366721 
                               0.553303986987871 56.3573963142703 0.0848574402405289 -19.2973936261913 0.0373657665727821 111.049248241239 0.104205018749208 -13.6684088036332 
                               0.000120435752496099 -112.182047790784 0.00016548412703567 -13.4374616522004 2.78764088001929E-05 -108.787275366721 1.7362872547795E-05 1.84625071463176 
                               0.104205018749209 -13.6684088036332 0.0373657665727822 111.04924824124  0.0848208525013315 -19.2981168295353 0.553355160848664 56.3629231736188 
                               0.0014412246759424 -14.3846855668179 0.0003632674528224 -90.4286332673647 0.000165484258171575 -13.4374573921363 0.000120435091920238 -112.182256873095 
                               0.0373657665727822 111.04924824124  0.104205018749209 -13.6684088036332 0.553355160848664 56.3629231736187 0.0848208525013313 -19.2981168295354 
                               0.0003632674528224 -90.4286332673647 0.00144122467594241 -14.3846855668179 0.000120435091920238 -112.182256873095 0.000165484258171575 -13.4374573921363 
                               0.000165484127035886 -13.4374616521997 0.000120435752496276 -112.182047790819 0.00144122467594239 -14.3846855668155 0.000363267452821509 -90.4286332674579 
                               0.0848208477418387 -19.2981272011449 0.553354787854209 56.3628820095386 0.104205016693333 -13.6684088593114 0.0373657619299854 111.049247744613 
                               0.000120435752496276 -112.182047790819 0.000165484127035886 -13.4374616521997 0.000363267452821509 -90.4286332674579 0.00144122467594239 -14.3846855668155 
                               0.553354787854209 56.3628820095386 0.0848208477418387 -19.2981272011449 0.0373657619299853 111.049247744613 0.104205016693333 -13.6684088593114 
                               1.73628725479058E-05 1.84625071417878 2.78764087980787E-05 -108.78727536806 0.000165484258171721 -13.4374573920788 0.00012043509192181 -112.182256873219 
                               0.104205016693333 -13.6684088593114 0.0373657619299853 111.049247744612 0.0848574424041894 -19.2973841839893 0.553304336533444 56.3574347910967 
                               2.78764087980787E-05 -108.78727536806 1.73628725479058E-05 1.84625071417879 0.00012043509192181 -112.182256873219 0.000165484258171721 -13.4374573920788 
                               0.0373657619299853 111.049247744612 0.104205016693333 -13.6684088593114 0.553304336533444 56.3574347910967 0.08485744240419 -19.2973841839893 
! Gamma         0                0                0                0                0                0                0                0                0                0                0                0                0                0                0                0                
! Port Impedance         50               0                50               0                50               0                50               0                50               0                50               0                50               0                50               0                
0.5                            0.0511121877877388 4.82441207242538 0.508835357435652 164.66655619381  0.0659873581709381 10.491673012578  0.0380560423773293 -147.363152030268 
                               0.000105116589684358 9.67116990806825 0.000103299061897936 18.5855735659743 1.36903483143868E-05 3.05431057515001 2.21585333807024E-05 23.6386827300076 
                               0.508835357435652 164.66655619381  0.0511121877877388 4.82441207242538 0.0380560423773293 -147.363152030268 0.0659873581709381 10.491673012578  
                               0.000103299061897936 18.5855735659743 0.000105116589684358 9.67116990806823 2.21585333807024E-05 23.6386827300076 1.36903483143868E-05 3.05431057515003 
                               0.0659873581709381 10.491673012578  0.0380560423773292 -147.363152030267 0.0510783027256798 4.822287679287   0.508888086064834 164.672798083058 
                               0.00102598575995017 9.61652653816217 0.000366611619259572 28.1107124429927 0.000105116421777758 9.67117295623286 0.000103298213984295 18.5855074390505 
                               0.0380560423773292 -147.363152030267 0.065987358170938 10.491673012578  0.508888086064834 164.672798083058 0.0510783027256799 4.82228767928699 
                               0.000366611619259572 28.1107124429927 0.00102598575995017 9.61652653816217 0.000103298213984295 18.5855074390505 0.000105116421777758 9.67117295623287 
                               0.000105116589684404 9.67116990802143 0.000103299061896964 18.5855735661523 0.00102598575995 9.61652653816218 0.000366611619259557 28.1107124428618 
                               0.0510783718450706 4.82228539820413 0.508887696308436 164.672752160018 0.0659873603076476 10.4916732759739 0.0380560371916369 -147.363153043105 
                               0.000103299061896964 18.5855735661523 0.000105116589684404 9.67116990802143 0.000366611619259556 28.1107124428618 0.00102598575995 9.61652653816218 
                               0.508887696308436 164.672752160018 0.0510783718450709 4.8222853982041  0.0380560371916369 -147.363153043105 0.0659873603076475 10.4916732759739 
                               1.36903483142817E-05 3.05431057519286 2.21585333820114E-05 23.6386827276107 0.000105116421777691 9.67117295617042 0.000103298213982113 18.5855074392058 
                               0.0659873603076474 10.4916732759739 0.0380560371916364 -147.363153043106 0.0511121230037871 4.82441460596017 0.508835722125137 164.666599104947 
                               2.21585333820114E-05 23.6386827276107 1.36903483142817E-05 3.05431057519286 0.000103298213982113 18.5855074392058 0.000105116421777691 9.67117295617042 
                               0.0380560371916364 -147.363153043106 0.0659873603076474 10.4916732759739 0.508835722125137 164.666599104947 0.0511121230037871 4.82441460596016 
! Gamma         0                0                0                0                0                0                0                0                0                0                0                0                0                0                0                0                
! Port Impedance         50               0                50               0                50               0                50               0                50               0                50               0                50               0                50               0                
0.6                            0.0860464366685142 -0.0656212609612774 0.464134918524828 -86.0717016632937 0.10849380921282 3.31654514296114 0.0368130925481359 -34.5503081129085 
                               0.000168940716207833 1.90909377951005 0.000123059235371013 119.291751246361 1.5238155101016E-05 -0.102993615741829 2.83368505975482E-05 125.090187508609 
                               0.464134918524829 -86.0717016632937 0.0860464366685138 -0.0656212609612767 0.0368130925481359 -34.5503081129085 0.10849380921282 3.31654514296114 
                               0.000123059235371013 119.291751246361 0.000168940716207834 1.90909377951005 2.83368505975482E-05 125.090187508609 1.5238155101016E-05 -0.102993615741832 
                               0.10849380921282 3.31654514296116 0.0368130925481353 -34.5503081129074 0.0860052939618976 -0.0620094663029455 0.464188427833015 -86.0649443132976 
                               0.00152792207578284 0.36499557197453 0.000390843400301817 131.657715247725 0.000168940780285764 1.90913979650961 0.000123058464150435 119.291645770518 
                               0.0368130925481353 -34.5503081129074 0.10849380921282 3.31654514296116 0.464188427833015 -86.0649443132976 0.0860052939618974 -0.0620094663029468 
                               0.000390843400301817 131.657715247725 0.00152792207578284 0.36499557197453 0.000123058464150435 119.291645770518 0.000168940780285764 1.90913979650961 
                               0.000168940716207792 1.90909377956826 0.000123059235374686 119.291751245773 0.00152792207578301 0.364995571965925 0.00039084340029774 131.657715248159 
                               0.0860053087947606 -0.0620429119092878 0.464188037900273 -86.064994153364 0.108493808258401 3.31654422312036 0.0368130876330616 -34.5503088773494 
                               0.000123059235374686 119.291751245773 0.000168940716207792 1.90909377956826 0.000390843400297741 131.657715248159 0.00152792207578301 0.364995571965924 
                               0.464188037900273 -86.064994153364 0.0860053087947606 -0.0620429119092864 0.0368130876330616 -34.5503088773494 0.108493808258401 3.31654422312036 
                               1.52381551011576E-05 -0.102993616348342 2.83368505961248E-05 125.090187511503 0.000168940780285825 1.90913979654565 0.000123058464151084 119.291645770241 
                               0.108493808258401 3.31654422312031 0.0368130876330608 -34.5503088773509 0.0860464210553767 -0.0655905429386438 0.464135283743929 -86.0716550622597 
                               2.83368505961248E-05 125.090187511503 1.52381551011576E-05 -0.102993616348339 0.000123058464151084 119.291645770241 0.000168940780285825 1.90913979654565 
                               0.0368130876330608 -34.5503088773509 0.108493808258401 3.31654422312031 0.464135283743929 -86.0716550622597 0.0860464210553764 -0.0655905429386444 
! Gamma         0                0                0                0                0                0                0                0                0                0                0                0                0                0                0                0                
! Port Impedance         50               0                50               0                50               0                50               0                50               0                50               0                50               0                50               0                
0.7                            0.0621529710125249 -14.5804295254936 0.429665135633968 23.8138407943105 0.0782978397163838 -10.0348958902477 0.0393053490648756 73.599777697045  
                               0.000124163603508216 -11.1527543441359 9.48093884704572E-05 -130.024009590955 1.56295436606774E-05 -6.28679403208954 2.13385407572775E-05 -126.868674438181 
                               0.429665135633968 23.8138407943105 0.0621529710125252 -14.5804295254935 0.0393053490648756 73.599777697045  0.0782978397163837 -10.0348958902477 
                               9.48093884704572E-05 -130.024009590955 0.000124163603508216 -11.1527543441359 2.13385407572775E-05 -126.868674438181 1.56295436606774E-05 -6.28679403208955 
                               0.0782978397163839 -10.0348958902477 0.0393053490648758 73.5997776970461 0.0621229130895712 -14.5857949814561 0.429718300312556 23.8211090659728 
                               0.00111798491739322 -8.12720892929732 0.00034955272614323 -117.20476556571 0.000124163626029462 -11.1528031783491 9.48085893583303E-05 -130.024155895158 
                               0.0393053490648758 73.5997776970461 0.0782978397163839 -10.0348958902477 0.429718300312556 23.8211090659728 0.0621229130895711 -14.5857949814561 
                               0.00034955272614323 -117.204765565711 0.00111798491739322 -8.12720892929732 9.48085893583303E-05 -130.024155895158 0.000124163626029462 -11.1528031783491 
                               0.000124163603508326 -11.1527543439195 9.480938847256E-05 -130.024009590239 0.00111798491739317 -8.12720892930898 0.000349552726142309 -117.204765565848 
                               0.0621229270707304 -14.5857718164994 0.429717908922588 23.8210550754204 0.078297839143489 -10.0348947172877 0.0393053437775038 73.5997763579792 
                               9.480938847256E-05 -130.024009590239 0.000124163603508326 -11.1527543439195 0.000349552726142309 -117.204765565848 0.00111798491739317 -8.12720892930899 
                               0.429717908922588 23.8210550754204 0.0621229270707305 -14.5857718164994 0.0393053437775038 73.5997763579792 0.0782978391434889 -10.0348947172877 
                               1.56295436607738E-05 -6.28679402973279 2.13385407652856E-05 -126.86867445113 0.000124163626029374 -11.1528031785414 9.4808589351408E-05 -130.024155892373 
                               0.078297839143489 -10.0348947172877 0.0393053437775029 73.5997763579782 0.0621529563279134 -14.5804506735117 0.429665502172591 23.8138912129792 
                               2.13385407652856E-05 -126.86867445113 1.56295436607737E-05 -6.28679402973279 9.4808589351408E-05 -130.024155892373 0.000124163626029374 -11.1528031785414 
                               0.0393053437775029 73.5997763579782 0.0782978391434891 -10.0348947172877 0.429665502172591 23.8138912129792 0.0621529563279135 -14.5804506735117 
! Gamma         0                0                0                0                0                0                0                0                0                0                0                0                0                0                0                0                
! Port Impedance         50               0                50               0                50               0                50               0                50               0                50               0                50               0                50               0                
0.8                            0.0685179335395116 8.4196394133424  0.396421621460006 133.621219375731 0.0884115104408284 10.8673623653237 0.0371988638221026 -177.993404085159 
                               0.000140430552937166 9.52771471807285 0.000106264394370493 -11.6829260745637 1.54332329456978E-05 1.70167605391626 2.41872060727226E-05 -4.89913719874551 
                               0.396421621460006 133.621219375731 0.0685179335395119 8.41963941334237 0.0371988638221026 -177.993404085159 0.0884115104408283 10.8673623653237 
                               0.000106264394370493 -11.6829260745637 0.000140430552937166 9.52771471807287 2.41872060727226E-05 -4.89913719874549 1.54332329456977E-05 1.70167605391626 
                               0.0884115104408284 10.8673623653237 0.0371988638221017 -177.993404085159 0.0684788366976989 8.4236258279971  0.396474493297936 133.629006776087 
                               0.0013060491324043 7.92744352327361 0.000368126388253356 -4.93195446506428 0.000140430474157449 9.52776295450188 0.000106263586108559 -11.6829686669059 
                               0.0371988638221017 -177.993404085159 0.0884115104408283 10.8673623653237 0.396474493297936 133.629006776087 0.0684788366976986 8.42362582799713 
                               0.000368126388253356 -4.93195446506425 0.00130604913240429 7.92744352327362 0.000106263586108559 -11.6829686669058 0.00014043047415745 9.52776295450187 
                               0.000140430552937178 9.52771471801229 0.000106264394369482 -11.6829260737174 0.00130604913240436 7.92744352327967 0.000368126388254437 -4.93195446530307 
                               0.0684788863211536 8.4235922401881  0.396474104766938 133.628949412677 0.0884115115499199 10.8673614710116 0.0371988586171692 -177.993405349989 
                               0.000106264394369482 -11.6829260737174 0.000140430552937178 9.52771471801229 0.000368126388254437 -4.93195446530305 0.00130604913240436 7.92744352327967 
                               0.396474104766938 133.628949412677 0.0684788863211536 8.4235922401881  0.0371988586171693 -177.993405349989 0.0884115115499199 10.8673614710116 
                               1.54332329457109E-05 1.70167605434721 2.41872060747984E-05 -4.89913720391367 0.000140430474157473 9.52776295445646 0.000106263586106356 -11.6829686657211 
                               0.0884115115499198 10.8673614710116 0.0371988586171703 -177.99340534999 0.0685178864999402 8.41967043579137 0.396421985134461 133.621272976793 
                               2.41872060747984E-05 -4.89913720391365 1.54332329457109E-05 1.7016760543472  0.000106263586106356 -11.6829686657211 0.000140430474157473 9.52776295445646 
                               0.0371988586171703 -177.99340534999 0.0884115115499198 10.8673614710116 0.396421985134461 133.621272976793 0.0685178864999402 8.41967043579135 
! Gamma         0                0                0                0                0                0                0                0                0                0                0                0                0                0                0                0                
! Port Impedance         50               0                50               0                50               0                50               0                50               0                50               0                50               0                50               0                
0.9                            0.0776229716467024 -7.4632560116817 0.366279804285834 -115.742588214996 0.0979752010020946 -4.9477801669026 0.0373079162784927 -65.5922635392887 
                               0.000153646869354317 -5.7641320350856 9.91441443974599E-05 91.7771668575943 1.60504029362098E-05 0.0613863706467165 2.32830955829125E-05 96.9526273541528 
                               0.366279804285834 -115.742588214996 0.0776229716467025 -7.46325601168169 0.0373079162784927 -65.5922635392887 0.0979752010020946 -4.9477801669026 
                               9.914414439746E-05 91.7771668575943 0.000153646869354317 -5.7641320350856 2.32830955829125E-05 96.9526273541529 1.60504029362098E-05 0.0613863706467217 
                               0.0979752010020948 -4.94778016690253 0.0373079162784923 -65.5922635392865 0.0775879763636257 -7.46254161158603 0.366331689727819 -115.734396943276 
                               0.00136223969370731 -5.87627135193871 0.000350050266633316 102.307189452106 0.00015364696258078 -5.7641229443803 9.914338810089E-05 91.7770551284459 
                               0.0373079162784923 -65.5922635392865 0.0979752010020948 -4.94778016690253 0.366331689727819 -115.734396943276 0.0775879763636257 -7.46254161158603 
                               0.000350050266633315 102.307189452106 0.00136223969370731 -5.87627135193871 9.91433881008899E-05 91.7770551284459 0.00015364696258078 -5.7641229443803 