! Touchstone file exported from HFSS 3D Layout Design 2021.2.0
!        File:           D:/Simulation/SSN.aedt
!        Generated:      12:36:15 PM  Feb 18, 2021
!        Design:         ssn
!        Project:        SSN
!        Setup:          SYZ Sweep 1
!        Solution:       SYZ Sweep 1
!
# GHz S MA R 50.000000
! Terminal data exported
! Port[1] = A-MII-RXD1_30_SQFP28X28_208_U1
! Port[2] = A-MII-RXD1_65_SQFP20X20_144_U7
! Port[3] = A-MII-RXD2_32_SQFP28X28_208_U1
! Port[4] = A-MII-RXD2_66_SQFP20X20_144_U7
! Port[5] = A-MII-RXD3_33_SQFP28X28_208_U1
! Port[6] = A-MII-RXD3_67_SQFP20X20_144_U7
0                              0.00298166409530576 0                0.997018335804667 0                9.71569326119175E-06 0                9.71569326119176E-06 180              
                               9.71553401690422E-06 0                9.71553398912824E-06 180              
                               0.997018335804667 0                0.00298166409530576 0                9.71569326119175E-06 180              9.71569326119175E-06 0                
                               9.71553398921538E-06 180              9.71553401684487E-06 0                
                               9.71569326119175E-06 0                9.71569326119175E-06 180              0.00299134546858548 0                0.997008654431399 0                
                               9.71543966877399E-06 0                9.71543965339285E-06 180              
                               9.71569326119176E-06 180              9.71569326119175E-06 0                0.997008654431399 0                0.0029913454685857 0                
                               9.71543965340107E-06 180              9.71543966877518E-06 0                
                               9.71553401690422E-06 0                9.71553398921538E-06 180              9.71543966877399E-06 0                9.71543965340107E-06 180              
                               0.00300768812298791 0                0.996992311774038 0                
                               9.71553398912824E-06 180              9.71553401684487E-06 0                9.71543965339285E-06 180              9.71543966877518E-06 0                
                               0.996992311774038 0                0.00300768812300545 0                
! Gamma         0                0                0                0                0                0                0                0                0                0                0                0                
! Port Impedance         50               0                50               0                50               0                50               0                50               0                50               0                
1E-09                          0.00298166368434043 -2.50463494557164E-05 0.997018335393844 -2.26230518148201E-07 9.71583079266345E-06 -8.63804976255341E-05 9.71555581087442E-06 179.998276195267 
                               9.71552424906832E-06 -0.00148026903575998 9.71554381058921E-06 179.998490647022 
                               0.997018335393844 -2.26230518148201E-07 0.0029816636843446 -2.50463494555352E-05 9.71555581086154E-06 179.998276195267 9.71583079275975E-06 -8.63804976191674E-05 
                               9.71554381059778E-06 179.998490647022 9.71552424894711E-06 -0.00148026903576143 
                               9.71583079266345E-06 -8.63804976255341E-05 9.71555581086154E-06 179.998276195267 0.00299134510789917 0.000108728185556684 0.997008654070648 -5.32487000288021E-07 
                               9.71549119858817E-06 0.0011570803002674 9.715388219442E-06 -179.99964576313 
                               9.71555581087442E-06 179.998276195267 9.71583079275975E-06 -8.63804976191674E-05 0.997008654070648 -5.32487000288021E-07 0.00299134510788463 0.000108728185558091 
                               9.71538821943929E-06 -179.99964576313 9.7154911985589E-06 0.00115708030027184 
                               9.71552424906832E-06 -0.00148026903575998 9.71554381059778E-06 179.998490647022 9.71549119858817E-06 0.0011570803002674 9.71538821943929E-06 -179.99964576313 
                               0.00300768806597006 0.00104882229072098 0.996992311716399 -3.43984852719754E-06 
                               9.71554381058921E-06 179.998490647022 9.71552424894711E-06 -0.00148026903576143 9.715388219442E-06 -179.99964576313 9.7154911985589E-06 0.00115708030027184 
                               0.996992311716399 -3.43984852719754E-06 0.00300768806597006 0.00104882229070033 
! Gamma         0                0                0                0                0                0                0                0                0                0                0                0                
! Port Impedance         50               0                50               0                50               0                50               0                50               0                50               0                
1.12201845430196E-09           0.00298166372929937 -2.51820950132448E-05 0.997018335438569 -2.59508355866464E-07 9.71582869716878E-06 0.000904455524638895 9.71555794448528E-06 179.998972539976 
                               9.7155233766824E-06 -0.00162321985992371 9.71554471218261E-06 179.998328916887 
                               0.997018335438569 -2.59508355866464E-07 0.00298166372930877 -2.51820950131107E-05 9.71555794436615E-06 179.998972539976 9.71582869702549E-06 0.000904455524652325 
                               9.71554471216592E-06 179.998328916887 9.71552337659425E-06 -0.00162321985991986 
                               9.71582869716878E-06 0.000904455524638895 9.71555794436615E-06 179.998972539976 0.00299134504893657 0.000115468451818421 0.99700865401149 -5.84682868026181E-07 
                               9.71550162340926E-06 0.00169819782439261 9.71537779479712E-06 -179.999344823827 
                               9.71555794448528E-06 179.998972539976 9.71582869702549E-06 0.000904455524652325 0.99700865401149 -5.84682868026181E-07 0.00299134504891846 0.000115468451818199 
                               9.71537779487713E-06 -179.999344823827 9.71550162351117E-06 0.00169819782437531 
                               9.7155233766824E-06 -0.00162321985992371 9.71554471216592E-06 179.998328916887 9.71550162340926E-06 0.00169819782439261 9.71537779487713E-06 -179.999344823827 
                               0.00300768806410785 0.00103330249744647 0.996992311714594 -3.41957306993116E-06 
                               9.71554471218261E-06 179.998328916887 9.71552337659425E-06 -0.00162321985991986 9.71537779479712E-06 -179.999344823827 9.71550162351117E-06 0.00169819782437531 
                               0.996992311714594 -3.41957306993116E-06 0.00300768806410785 0.0010333024974382 
! Gamma         0                0                0                0                0                0                0                0                0                0                0                0                
! Port Impedance         50               0                50               0                50               0                50               0                50               0                50               0                
1.25892541179417E-09           0.00298166377913648 -2.45145087200816E-05 0.997018335488564 -2.98483356284924E-07 9.71582595725865E-06 0.00198522926820376 9.71556066617563E-06 179.999745096866 
                               9.71552236735945E-06 -0.00177793605829864 9.71554575010256E-06 179.998151375069 
                               0.997018335488564 -2.98483356284924E-07 0.00298166377916807 -2.45145087198817E-05 9.71556066618077E-06 179.999745096866 9.71582595723E-06 0.00198522926820897 
                               9.71554575003024E-06 179.998151375069 9.71552236736216E-06 -0.00177793605828242 
                               9.71582595725865E-06 0.00198522926820376 9.71556066618077E-06 179.999745096866 0.0029913449905094 0.000121972016771414 0.997008653953048 -6.4100189209108E-07 
                               9.71551285191221E-06 0.00237274772866408 9.71536660779507E-06 -179.998960216601 
                               9.71556066617563E-06 179.999745096866 9.71582595723E-06 0.00198522926820897 0.997008653953048 -6.4100189209108E-07 0.00299134499052478 0.000121972016770019 
                               9.71536660763342E-06 -179.998960216601 9.71551285170957E-06 0.00237274772870896 
                               9.71552236735945E-06 -0.00177793605829864 9.71554575003024E-06 179.998151375069 9.71551285191221E-06 0.00237274772866408 9.71536660763342E-06 -179.998960216601 
                               0.00300768806216454 0.00100672374741004 0.996992311712278 -3.37004403425713E-06 
                               9.71554575010256E-06 179.998151375069 9.71552236736216E-06 -0.00177793605828242 9.71536660779507E-06 -179.998960216601 9.71551285170957E-06 0.00237274772870896 
                               0.996992311712278 -3.37004403425713E-06 0.00300768806216454 0.00100672374740178 
! Gamma         0                0                0                0                0                0                0                0                0                0                0                0                
! Port Impedance         50               0                50               0                50               0                50               0                50               0                50               0                
1.41253754462275E-09           0.00298166383363459 -2.28142613217374E-05 0.997018335542906 -3.4412947052537E-07 9.71582291770519E-06 0.00315609849361151 9.71556377000634E-06 -179.999410108533 
                               9.71552111380374E-06 -0.00194676049634697 9.71554704361231E-06 179.99795553925  
                               0.997018335542906 -3.4412947052537E-07 0.00298166383363705 -2.28142613209708E-05 9.71556376998053E-06 -179.999410108533 9.71582291769363E-06 0.00315609849361745 
                               9.71554704363931E-06 179.99795553925  9.71552111376124E-06 -0.00194676049636727 
                               9.71582291770519E-06 0.00315609849361151 9.71556376998053E-06 -179.999410108533 0.00299134493473842 0.000128241290680446 0.997008653897606 -7.01910447793314E-07 
                               9.71552441488999E-06 0.00319546202058417 9.71535511459779E-06 -179.998480684543 
                               9.71556377000634E-06 -179.999410108533 9.71582291769363E-06 0.00315609849361745 0.997008653897606 -7.01910447793314E-07 0.00299134493471708 0.00012824129068445 
                               9.7153551146057E-06 -179.998480684543 9.71552441483144E-06 0.00319546202061659 
                               9.71552111380374E-06 -0.00194676049634697 9.71554704363931E-06 179.99795553925  9.71552441488999E-06 0.00319546202058417 9.7153551146057E-06 -179.998480684543 
                               0.00300768805980164 0.000971042873668454 0.996992311709947 -3.29783811032227E-06 
                               9.71554704361231E-06 179.99795553925  9.71552111376124E-06 -0.00194676049636727 9.71535511459779E-06 -179.998480684543 9.71552441483144E-06 0.00319546202061659 
                               0.996992311709947 -3.29783811032227E-06 0.00300768805981585 0.000971042873663866 
! Gamma         0                0                0                0                0                0                0                0                0                0                0                0                
! Port Impedance         50               0                50               0                50               0                50               0                50               0                50               0                
1.58489319246111E-09           0.00298166389135839 -1.98232652397444E-05 0.997018335600333 -3.97581370598148E-07 9.71581972995913E-06 0.00442025832687641 9.71556702438095E-06 -179.998495068654 
                               9.7155193986776E-06 -0.00213235271231629 9.7155487522158E-06 179.997738720824 
                               0.997018335600333 -3.97581370598148E-07 0.00298166389132509 -1.98232652407864E-05 9.71556702441998E-06 -179.998495068654 9.71581972998617E-06 0.00442025832688423 
                               9.71554875215183E-06 179.997738720824 9.71551939858653E-06 -0.00213235271234179 
                               9.71581972995913E-06 0.00442025832687641 9.71556702441998E-06 -179.998495068654 0.00299134488445324 0.000134332295517096 0.997008653846738 -7.68013450036262E-07 
                               9.71553569414283E-06 0.00417820627258091 9.71534380187987E-06 -179.997896618034 
                               9.71556702438095E-06 -179.998495068654 9.71581972998617E-06 0.00442025832688423 0.997008653846738 -7.68013450036262E-07 0.00299134488445376 0.000134332295516384 
                               9.7153438018133E-06 -179.997896618034 9.71553569403256E-06 0.00417820627261241 
                               9.7155193986776E-06 -0.00213235271231629 9.71554875215183E-06 179.997738720824 9.71553569414283E-06 0.00417820627258091 9.7153438018133E-06 -179.997896618034 
                               0.00300768805722093 0.000928569789148646 0.996992311707688 -3.21057309724182E-06 
                               9.7155487522158E-06 179.997738720824 9.71551939858653E-06 -0.00213235271234179 9.71534380187987E-06 -179.997896618034 9.71553569403256E-06 0.00417820627261241 
                               0.996992311707688 -3.21057309724182E-06 0.00300768805724935 0.000928569789135741 
! Gamma         0                0                0                0                0                0                0                0                0                0                0                0                
! Port Impedance         50               0                50               0                50               0                50               0                50               0                50               0                
1.77827941003892E-09           0.00298166395022459 -1.52908666444291E-05 0.997018335659389 -4.60050804232623E-07 9.7158164909789E-06 0.00578313850606297 9.71557035694512E-06 -179.997510332459 
                               9.71551692914736E-06 -0.0023370859169489 9.71555124661228E-06 179.997498598359 
                               0.997018335659389 -4.60050804232623E-07 0.00298166395021448 -1.52908666448281E-05 9.71557035695171E-06 -179.997510332459 9.71581649098378E-06 0.00578313850608786 
                               9.71555124675181E-06 179.997498598359 9.71551692921588E-06 -0.00233708591694565 
                               9.7158164909789E-06 0.00578313850606297 9.71557035695171E-06 -179.997510332459 0.00299134484059529 0.0001403733024081 0.997008653803087 -8.40119844765442E-07 
                               9.71554623798129E-06 0.00533327922310712 9.71533336597466E-06 -179.997196916383 
                               9.71557035694512E-06 -179.997510332459 9.71581649098378E-06 0.00578313850608786 0.997008653803087 -8.40119844765442E-07 0.00299134484056553 0.000140373302411201 
                               9.71533336591677E-06 -179.997196916383 9.71554623797056E-06 0.00533327922314283 
                               9.71551692914736E-06 -0.0023370859169489 9.71555124675181E-06 179.997498598359 9.71554623798129E-06 0.00533327922310712 9.71533336591677E-06 -179.997196916383 
                               0.00300768805486571 0.00088172336638848 0.996992311705513 -3.11618123538204E-06 
                               9.71555124661228E-06 179.997498598359 9.71551692921588E-06 -0.00233708591694565 9.71533336597466E-06 -179.997196916383 9.71554623797056E-06 0.00533327922314283 
                               0.996992311705513 -3.11618123538204E-06 0.0030076880548515 0.000881723366392645 
! Gamma         0                0                0                0                0                0                0                0                0                0                0                0                
! Port Impedance         50               0                50               0                50               0                50               0                50               0                50               0                
1.99526231496888E-09           0.00298166400818376 -8.98450201470995E-06 0.997018335717148 -5.32812621640177E-07 9.71581309787337E-06 0.00725405178839934 9.71557379118368E-06 -179.99645320373 
                               9.71551308458165E-06 -0.00256397934639565 9.7155551876545E-06 179.997232235785 
                               0.997018335717148 -5.32812621640177E-07 0.0029816640081734 -8.98450201337025E-06 9.71557379104258E-06 -179.99645320373 9.71581309783478E-06 0.00725405178839986 
                               9.7155551876351E-06 179.997232235785 9.71551308455282E-06 -0.00256397934636783 
                               9.71581309787337E-06 0.00725405178839934 9.71557379104258E-06 -179.99645320373 0.00299134480492676 0.000146527947071099 0.99700865376729 -9.19163913106022E-07 
                               9.71555542890276E-06 0.0066704532130217 9.71532423673654E-06 -179.996372314279 
                               9.71557379118368E-06 -179.99645320373 9.71581309783478E-06 0.00725405178839986 0.99700865376729 -9.19163913106022E-07 0.00299134480488754 0.00014652794707249 
                               9.7153242367824E-06 -179.996372314279 9.7155554289265E-06 0.00667045321305723 
                               9.71551308458165E-06 -0.00256397934639565 9.7155551876351E-06 179.997232235785 9.71555542890276E-06 0.0066704532130217 9.7153242367824E-06 -179.996372314279 
                               0.00300768805309358 0.000832815986464385 0.996992311703438 -3.02226963801615E-06 
                               9.7155551876545E-06 179.997232235785 9.71551308455282E-06 -0.00256397934636783 9.71532423673654E-06 -179.996372314279 9.7155554289265E-06 0.00667045321305723 
                               0.996992311703438 -3.02226963801615E-06 0.00300768805305094 0.00083281598648032 
! Gamma         0                0                0                0                0                0                0                0                0                0                0                0                
! Port Impedance         50               0                50               0                50               0                50               0                50               0                50               0                
2.23872113856834E-09           0.00298166402644255 -7.02077788921655E-07 0.997018335735284 -6.17221457747E-07 9.71580432611496E-06 0.00884533634839875 9.71558256493335E-06 -179.995318344617 
                               9.71551280322133E-06 -0.00281786893704759 9.71555558189041E-06 179.99693486704  
                               0.997018335735284 -6.17221457747E-07 0.00298166402646239 -7.02077789968389E-07 9.71558256496109E-06 -179.995318344617 9.71580432614096E-06 0.00884533634834984 
                               9.7155555818632E-06 179.99693486704  9.71551280325277E-06 -0.00281786893704413 
                               9.71580432611496E-06 0.00884533634839875 9.71558256496109E-06 -179.995318344617 0.00299134477680374 0.000152997892481166 0.997008653739522 -1.00625365167948E-06 
                               9.7155638263215E-06 0.00819998884074468 9.71531604869544E-06 -179.995412914545 
                               9.71558256493335E-06 -179.995318344617 9.71580432614096E-06 0.00884533634834984 0.997008653739522 -1.00625365167948E-06 0.00299134477683923 0.000152997892478863 
                               9.71531604854983E-06 -179.995412914545 9.71556382621958E-06 0.00819998884072595 
                               9.71551280322133E-06 -0.00281786893704759 9.7155555818632E-06 179.99693486704  9.7155638263215E-06 0.00819998884074468 9.71531604854983E-06 -179.995412914545 
                               0.00300768805095414 0.000783904506124983 0.996992311701591 -2.93572097513238E-06 
                               9.71555558189041E-06 179.99693486704  9.71551280325277E-06 -0.00281786893704413 9.71531604869544E-06 -179.995412914545 9.71556382621958E-06 0.00819998884072595 
                               0.996992311701591 -2.93572097513238E-06 0.00300768805095414 0.00078390450610846 
! Gamma         0                0                0                0                0                0                0                0                0                0                0                0                
! Port Impedance         50               0                50               0                50               0                50               0                50               0                50               0                
2.51188643150958E-09           0.00298166402970408 9.73200481869685E-06 0.997018335738545 -7.14725807509597E-07 9.71579599303253E-06 0.0105713986794012 9.71559095900123E-06 -179.994098776392 
                               9.71551402834838E-06 -0.00310180845744596 9.71555450725348E-06 179.996603444117 
                               0.997018335738545 -7.14725807509597E-07 0.00298166402972463 9.73200481844861E-06 9.71559095897352E-06 -179.994098776392 9.71579599295652E-06 0.0105713986794337 
                               9.71555450725207E-06 179.996603444117 9.71551402831119E-06 -0.00310180845743567 
                               9.71579599303253E-06 0.0105713986794012 9.71559095897352E-06 -179.994098776392 0.00299134475796451 0.000160006563395709 0.997008653720277 -1.10264414282085E-06 
                               9.71557060606567E-06 0.00993326069221422 9.71530942994452E-06 -179.994308309152 
                               9.71559095900123E-06 -179.994098776392 9.71579599295652E-06 0.0105713986794337 0.997008653720277 -1.10264414282085E-06 0.00299134475795197 0.000160006563395036 
                               9.71530942991438E-06 -179.994308309152 9.71557060607977E-06 0.00993326069216078 
                               9.71551402834838E-06 -0.00310180845744596 9.71555450725207E-06 179.996603444117 9.71557060606567E-06 0.00993326069221422 9.71530942991438E-06 -179.994308309152 
                               0.00300768804920175 0.000736699690101306 0.99699231169953 -2.86243046922369E-06 
                               9.71555450725348E-06 179.996603444117 9.71551402831119E-06 -0.00310180845743567 9.71530942994452E-06 -179.994308309152 9.71557060607977E-06 0.00993326069216078 
                               0.99699231169953 -2.86243046922369E-06 0.00300768804923017 0.000736699690094344 
! Gamma         0                0                0                0                0                0                0                0                0                0                0                0                
! Port Impedance         50               0                50               0                50               0                50               0                50               0                50               0                
2.81838293126445E-09           0.00298166403195582 2.2440070318581E-05 0.997018335740557 -8.2679249924881E-07 9.71578989748405E-06 0.0124512568110959 9.71559751232794E-06 -179.992783395045 
                               9.71551480908391E-06 -0.0034204972711321 9.71555355807495E-06 179.996233159638 
                               0.997018335740557 -8.2679249924881E-07 0.00298166403195984 2.24400703194104E-05 9.71559751223849E-06 -179.992783395045 9.71578989743328E-06 0.0124512568111602 
                               9.71555355801131E-06 179.996233159638 9.71551480909671E-06 -0.00342049727109954 
                               9.71578989748405E-06 0.0124512568110959 9.71559751223849E-06 -179.992783395045 0.00299134474734158 0.000167805083402874 0.997008653709358 -1.20980954715068E-06 
                               9.7155754614316E-06 0.0118841879880258 9.71530456491558E-06 -179.993046713906 
                               9.71559751232794E-06 -179.992783395045 9.71578989743328E-06 0.0124512568111602 0.997008653709358 -1.20980954715068E-06 0.00299134474730932 0.000167805083408806 
                               9.71530456496036E-06 -179.993046713906 9.71557546145914E-06 0.01188418798796 
                               9.71551480908391E-06 -0.0034204972711321 9.71555355801131E-06 179.996233159638 9.7155754614316E-06 0.0118841879880258 9.71530456496036E-06 -179.993046713906 
                               0.0030076880477944 0.000692566917397121 0.996992311697953 -2.80735149687713E-06 
                               9.71555355807495E-06 179.996233159638 9.71551480909671E-06 -0.00342049727109954 9.71530456491558E-06 -179.993046713906 9.71557546145914E-06 0.01188418798796 
                               0.996992311697953 -2.80735149687713E-06 0.00300768804778019 0.000692566917396262 
! Gamma         0                0                0                0                0                0                0                0                0                0                0                0                
! Port Impedance         50               0                50               0                50               0                50               0                50               0                50               0                
3.16227766016838E-09           0.00298166403351575 3.75290652568022E-05 0.997018335741783 -9.55028944381628E-07 9.71578528314548E-06 0.0145063652859238 9.71560233038025E-06 -179.991359174145 
                               9.71551560274655E-06 -0.00378001560268008 9.71555308921893E-06 179.995817683028 
                               0.997018335741783 -9.55028944381628E-07 0.00298166403352014 3.75290652576688E-05 9.71560233041873E-06 -179.991359174145 9.71578528324928E-06 0.0145063652857201 
                               9.71555308930415E-06 179.995817683028 9.71551560278308E-06 -0.00378001560264916 
                               9.71578528314548E-06 0.0145063652859238 9.71560233041873E-06 -179.991359174145 0.00299134474345963 0.00017664869892419 0.99700865370551 -1.32939208756624E-06 
                               9.71557881900526E-06 0.0140692156366145 9.71530153145275E-06 -179.991615580472 
                               9.71560233038025E-06 -179.991359174145 9.71578528324928E-06 0.0145063652857201 0.99700865370551 -1.32939208756624E-06 0.00299134474344325 0.000176648698925505 
                               9.71530153148918E-06 -179.991615580472 9.71557881898173E-06 0.0140692156366168 
                               9.71551560274655E-06 -0.00378001560268008 9.71555308930415E-06 179.995817683028 9.71557881900526E-06 0.0140692156366145 9.71530153148918E-06 -179.991615580472 
                               0.00300768804673234 0.00065252862027927 0.996992311696645 -2.77452129839522E-06 
                               9.71555308921893E-06 179.995817683028 9.71551560278308E-06 -0.00378001560264916 9.71530153145275E-06 -179.991615580472 9.71557881898173E-06 0.0140692156366168 
                               0.996992311696645 -2.77452129839522E-06 0.00300768804674655 0.000652528620272056 
! Gamma         0                0                0                0                0                0                0                0                0                0                0                0                
! Port Impedance         50               0                50               0                50               0                50               0                50               0                50               0                
3.54813389233576E-09           0.0029816640346036 5.50856824443223E-05 0.997018335742443 -1.10113422396348E-06 9.71578202914697E-06 0.0167611223780647 9.7156058991959E-06 -179.989810866497 
                               9.71551611108544E-06 -0.00418403810440766 9.71555273185882E-06 179.99535291592  
                               0.997018335742443 -1.10113422396348E-06 0.00298166403460617 5.50856824426513E-05 9.71560589911345E-06 -179.989810866497 9.71578202912394E-06 0.0167611223779675 
                               9.71555273194816E-06 179.99535291592  9.71551611111894E-06 -0.00418403810435311 
                               9.71578202914697E-06 0.0167611223780647 9.71560589911345E-06 -179.989810866497 0.00299134474532155 0.00018680988832402 0.997008653706905 -1.46327035545514E-06 
                               9.71558077491143E-06 0.0165069529703363 9.71529991850776E-06 -179.990002302067 
                               9.7156058991959E-06 -179.989810866497 9.71578202912394E-06 0.0167611223779675 0.997008653706905 -1.46327035545514E-06 0.00299134474534942 0.00018680988831557 
                               9.71529991841224E-06 -179.990002302067 9.71558077484594E-06 0.0165069529703316 
                               9.71551611108544E-06 -0.00418403810440766 9.71555273194816E-06 179.99535291592  9.71558077491143E-06 0.0165069529703363 9.71529991841224E-06 -179.990002302067 
                               0.00300768804605816 0.000617333076008926 0.996992311695722 -2.7672837251072E-06 
                               9.71555273185882E-06 179.99535291592  9.71551611111894E-06 -0.00418403810435311 9.71529991850776E-06 -179.990002302067 9.71558077484594E-06 0.0165069529703316 
                               0.996992311695722 -2.7672837251072E-06 0.00300768804604395 0.000617333076020104 
! Gamma         0                0                0                0                0                0                0                0                0                0                0                0                