! Touchstone file exported from HFSS 3D Layout Design 2024.2.1
!        File:           D:/Data/siverse/PythonTest/HSD_PCIE_UT.aedt
!        Generated:      10:42:22 AM Feb 28, 2025
!        Design:         main_cutout
!        Project:        HSD_PCIE_UT
!        Setup:          Setup1
!        Solution:       Sweep1
!
# GHz S MA R 50.000000
! Terminal data exported
! Port[1] = U1.AL25.PCIe_Gen4_TX0_CAP_N
! Port[2] = U1.AM25.PCIe_Gen4_TX0_CAP_P
! Port[3] = U1.AN26.PCIe_Gen4_RX0_N
! Port[4] = U1.AP25.PCIe_Gen4_RX1_N
! Port[5] = U1.AP26.PCIe_Gen4_RX0_P
! Port[6] = U1.AR25.PCIe_Gen4_RX1_P
! Port[7] = U1.AU16.PCIe_Gen4_TX1_CAP_P
! Port[8] = U1.AU17.PCIe_Gen4_TX1_CAP_N
! Port[9] = X1.A2.PCIe_Gen4_RX0_P
! Port[10] = X1.A3.PCIe_Gen4_RX0_N
! Port[11] = X1.A5.PCIe_Gen4_RX1_P
! Port[12] = X1.A6.PCIe_Gen4_RX1_N
! Port[13] = X1.B2.PCIe_Gen4_TX0_P
! Port[14] = X1.B3.PCIe_Gen4_TX0_N
! Port[15] = X1.B5.PCIe_Gen4_TX1_P
! Port[16] = X1.B6.PCIe_Gen4_TX1_N
0                              0.998486035165036 0                0.000102239070569106 180              4.64869710313503E-08 180              2.34766798299207E-07 0                
                               6.20306609091884E-08 180              3.49053767214913E-07 0                6.14861308045828E-06 180              5.79404222422274E-06 180              
                               6.20520409946813E-08 0                4.65094600167402E-08 0                3.49052036991594E-07 180              2.34765327596181E-07 180              
                               0.00010259293264615 0                0.00151245710667812 0                6.15102575772901E-06 0                5.79612964858788E-06 0                
                               0.000102241278484419 180              0.998480193390407 0                2.38302881969907E-07 180              7.24440561147904E-08 0                
                               2.07852947016156E-07 180              2.59077635976369E-07 0                5.89119811861606E-06 180              5.51291856503137E-06 180              
                               2.078756661189E-07 0                2.38331661242838E-07 0                2.59075885851667E-07 180              7.24418594731525E-08 180              
                               0.00151830129782169 0                0.00010259470712754 0                5.89330261782824E-06 0                5.51494178942592E-06 0                
                               1.00650258032863E-07 0                1.45262314912019E-07 180              0.00334057801162331 0                0.000131463935137959 0                
                               0.000206654942971478 0                0.000147221097619882 0                1.04565461665978E-06 180              1.00322450704758E-06 180              
                               0.000206351185123133 180              0.996658067032053 0                0.000147204863136361 180              0.000131458295976025 180              
                               1.4519012860736E-07 0                1.00625469819762E-07 180              1.04577624735135E-06 0                1.00330594041539E-06 0                
                               3.52293103607189E-07 0                1.47247617014082E-07 0                0.000131787925366828 0                0.00315167372314854 0                
                               0.000123589978301957 0                0.000192584884972 0                1.02650461282363E-06 180              9.86720695915736E-07 180              
                               0.000123590231039393 180              0.000131783116379554 180              0.00019230225715932 180              0.99684704376802 0                
                               1.47376814830449E-07 180              3.52308642991113E-07 180              1.02662317912455E-06 0                9.86824298916823E-07 0                
                               1.01082107153837E-07 0                9.24182876089799E-08 180              0.000206336864914356 0                0.000123059249266132 0                
                               0.00331765040479521 0                0.000135254853481003 0                1.00171270149033E-06 180              9.56551501544752E-07 180              
                               0.996680999825864 0                0.000206032299226857 180              0.000135252226841716 180              0.000123059609794725 180              
                               9.23933137225576E-08 0                1.01046358711845E-07 180              1.001823429712E-06 0                9.56616224272965E-07 0                
                               3.24918467034523E-07 0                1.93599667185106E-07 0                0.000147036014602792 0                0.000192360299193686 0                
                               0.000135370315096365 0                0.00314366507418886 0                1.01276641700441E-06 180              9.78956873177955E-07 180              
                               0.000135366825537858 180              0.000147019605641173 180              0.996855068617572 0                0.000192076891645739 180              
                               1.93672319049548E-07 180              3.24921910775521E-07 180              1.01288612394153E-06 0                9.79056181717472E-07 0                
                               6.20787598673305E-06 180              5.82129655466323E-06 180              9.43114699993818E-07 180              9.44749509342026E-07 180              
                               9.09030763481548E-07 180              8.08618723614899E-07 180              0.998328552003009 0                8.18318854739845E-05 180              
                               9.09027836301764E-07 0                9.43111777689146E-07 0                8.08616050832682E-07 0                9.44746734248568E-07 0                
                               5.82095904427919E-06 0                6.20770539324765E-06 0                0.00167089992105624 0                8.19269476966151E-05 0                
                               5.87131147663727E-06 180              5.4608753700442E-06 180              9.49566389154791E-07 180              9.47888130569103E-07 180              
                               9.14734230378891E-07 180              8.22820084690037E-07 180              8.18553718555459E-05 180              0.998338050475541 0                
                               9.14731296356921E-07 0                9.4956345962927E-07 0                8.22817421875067E-07 0                9.47885388351798E-07 0                
                               5.46066945210368E-06 0                5.87102378218959E-06 0                8.19513002473659E-05 0                0.00166140103292156 0                
                               1.01060417710857E-07 180              9.24412981527242E-08 0                0.00020603241878325 180              0.000123056186620654 180              
                               0.996680999999645 0                0.000135253868698605 180              1.00170962916408E-06 0                9.56548610155005E-07 0                
                               0.0033176369736009 0                0.000206321634455337 0                0.000135259064080393 0                0.00012305661083866 0                
                               9.23759372099391E-08 180              1.01062945976245E-07 0                1.00182001994202E-06 180              9.56612906869621E-07 180              
                               1.00627460052367E-07 180              1.45291377888455E-07 0                0.996658066767367 0                0.000131460190106626 180              
                               0.000206351090379085 180              0.000147201112862806 180              1.04565153407147E-06 0                1.00322160319051E-06 0                
                               0.000206641113894854 0                0.0033405647934574 0                0.000147222434168936 0                0.000131467587460055 0                
                               1.45170593643335E-07 180              1.00642505897382E-07 0                1.04577283619581E-06 180              1.00330263318731E-06 180              
                               3.2491644636528E-07 180              1.93597644817185E-07 180              0.000147022519576984 180              0.000192082585431082 180              
                               0.000135365412412903 180              0.996855067407129 0                1.01276359621224E-06 0                9.78954236130838E-07 0                
                               0.000135369744891643 0                0.000147043666399308 0                0.00314365530643811 0                0.000192353083725898 0                
                               1.93670060825352E-07 0                3.24919544250418E-07 0                1.01288293803881E-06 180              9.79053110777199E-07 180              
                               3.52291331928076E-07 180              1.47245143625458E-07 180              0.000131781546064177 180              0.996847044965268 0                
                               0.000123593743251611 180              0.000192296333685292 180              1.02650167963276E-06 0                9.86717974423371E-07 0                
                               0.000123594059685359 0                0.000131789773578822 0                0.000192567611721133 0                0.00315166171752593 0                
                               1.47374576646775E-07 0                3.52305982951738E-07 0                1.02661984297178E-06 180              9.86821095973947E-07 180              
                               0.000102595141889355 0                0.00151830129917051 0                2.38225352585853E-07 0                7.25794517210299E-08 180              
                               2.07817321918947E-07 0                2.59140205637131E-07 180              5.89085908472576E-06 0                5.51271168012696E-06 0                
                               2.07799652643491E-07 180              2.38205528114189E-07 180              2.59138217817899E-07 0                7.25774889316991E-08 0                
                               0.998480280431147 0                0.000102209665471384 180              5.89316673075648E-06 180              5.51473851901415E-06 180              
                               0.00151245710499638 0                0.000102592497476825 0                4.65051303920434E-08 0                2.34789315680079E-07 180              
                               6.20551023011751E-08 0                3.49049880903752E-07 180              6.14844364310604E-06 0                5.793756257653E-06 0                
                               6.20382118778203E-08 180              4.64877868920929E-08 180              3.49047804508067E-07 0                2.34786956977017E-07 0                
                               0.000102207454492343 180              0.99848613357677 0                6.15049397607942E-06 180              5.79590960417743E-06 180              
                               6.21026272739867E-06 0                5.82332613570544E-06 0                9.43180646987163E-07 0                9.4481845602966E-07 0                
                               9.09090419423914E-07 0                8.08684097525085E-07 0                0.00167089991163389 0                8.19277642650084E-05 0                
                               9.09087154881483E-07 180              9.43177396161975E-07 180              8.08681059719309E-07 180              9.44815278046829E-07 180              
                               5.82319177470671E-06 180              6.20972979052645E-06 180              0.9983270881928  0                8.16753746017299E-05 180              
                               5.87337713859574E-06 0                5.46282828772493E-06 0                9.49617263156891E-07 0                9.47964173638925E-07 0                
                               9.14774309794895E-07 0                8.22889595036093E-07 0                8.19504829864715E-05 0                0.00166140104177967 0                
                               9.14770949738198E-07 180              9.49613930218764E-07 180              8.22886498327249E-07 180              9.47960949950019E-07 180              
                               5.46262598706319E-06 180              5.87315536746609E-06 180              8.16989595296017E-05 180              0.998336604711745 0                
0.025                          0.00655572232481949 10.8979831880866 0.0204327784807559 82.4761116888087 4.03848150971069E-05 77.0458462995    3.5136937233221E-05 79.4811364173179 
                               3.17131794423893E-05 75.5034195455996 2.47698563005009E-05 76.7634769664129 0.000156295515386331 72.8164985735522 0.000130926253928043 72.5623173396639 
                               3.15099401475619E-05 -105.732500318483 4.01160842220532E-05 -104.985042502584 2.45901407909095E-05 -104.790040299748 3.48601331791689E-05 -103.604860839492 
                               0.00385410513935771 -107.484847969721 0.993345935437792 -4.56154054037339 0.000145627857786149 -104.44532109584 0.000127184301269489 -104.823943779754 
                               0.0204327784807559 82.4761116888091 0.00661728638214232 11.4588583603145 6.50845946959511E-05 80.7665164300966 5.83093805133556E-05 82.7703675315112 
                               4.8592525387237E-05 79.0799987608814 3.68190678551476E-05 80.4752923504915 0.000132988037302523 72.4642688823019 0.000114605800832035 72.3703332377123 
                               4.83627187374883E-05 -102.9611405601  6.49074942053223E-05 -101.962304253002 3.67911296512375E-05 -101.786490679542 5.82345612614298E-05 -100.520267017064 
                               0.993320851855651 -4.56931196697546 0.00385364481379888 -107.513208697864 0.000130139887827337 -104.366385752303 0.000112831868355794 -104.856985250163 
                               4.03848150971067E-05 77.0458462994998 6.50845946959518E-05 80.7665164300963 0.00583684434365297 -21.3081821926815 0.000807171911014328 78.652793300375  
                               0.0129269428388362 81.2788199343807 0.00127793927831702 79.3640624046942 6.46185097609565E-05 82.3322241034162 6.4701456765809E-05 81.8727744627707 
                               0.00108548547903104 -142.390988767221 0.993893792086908 -4.09625792743693 0.000406178230323457 -119.420170300579 0.000447463451079133 -110.613578074942 
                               6.49869961583343E-05 -101.927263597637 4.01648373505366E-05 -103.806204691052 6.43791767848147E-05 -100.640643716582 6.43433516639382E-05 -101.032261770625 
                               3.51369372332211E-05 79.4811364173168 5.83093805133563E-05 82.7703675315105 0.000807171911014323 78.6527933003744 0.00551126503728291 -20.5485864761117 
                               0.000584502936868472 78.1729986572537 0.0122580393433747 81.5506019898384 6.68984490644981E-05 82.0107938216676 6.78679255704337E-05 81.4745323002552 
                               0.000473728067947144 -106.298141345662 0.000447671249252829 -111.104002085081 0.00108298530370545 -136.245354361132 0.994213338674169 -3.88552991121544 
                               5.83303738733168E-05 -100.553874769196 3.49317784308358E-05 -102.286403316713 6.6615920359307E-05 -100.980343359407 6.7334408151568E-05 -101.401448016767 
                               3.17131794423892E-05 75.5034195455996 4.85925253872381E-05 79.0799987608806 0.0129269428388362 81.2788199343815 0.000584502936868478 78.1729986572537 
                               0.00578377302433249 -20.8884538151732 0.000718365102316873 77.8477581817437 6.31786766945387E-05 82.4847484309258 6.33406981892532E-05 82.0411939200826 
                               0.993931688449716 -4.07393230044382 0.00109405509305281 -142.519793560396 0.000483565168492935 -108.995308175082 0.00047363239431994 -106.301591279557 
                               4.84020366274231E-05 -103.194746701843 3.15246014689724E-05 -104.813927500346 6.29341702405073E-05 -100.504645626257 6.3030653055601E-05 -100.887621278329 
                               2.47698563005008E-05 76.7634769664126 3.68190678551481E-05 80.4752923504925 0.00127793927831702 79.3640624046944 0.0122580393433747 81.5506019898384 
                               0.000718365102316872 77.8477581817438 0.00541588572013491 -19.9571817437226 6.60196104458242E-05 81.8394232271106 6.71076580483444E-05 81.3473277355772 
                               0.000483609624819168 -108.690043997698 0.00040639304402547 -119.581377940341 0.994291574371563 -3.84701265408725 0.00108197799417357 -136.58616778014 
                               3.68339611700863E-05 -102.314795871452 2.46168427263598E-05 -103.896600394064 6.56905462777044E-05 -101.134953108314 6.63636592100619E-05 -101.491254333837 
                               0.000156295515386331 72.8164985735525 0.000132988037302523 72.4642688823013 6.46185097609557E-05 82.3322241034159 6.68984490644977E-05 82.0107938216671 
                               6.31786766945383E-05 82.4847484309253 6.60196104458238E-05 81.8394232271108 0.0123087062041684 -60.2411343762703 0.0107947728376672 82.344510359192  
                               6.31701597745933E-05 -112.483222279177 6.46260019874426E-05 -112.241310496462 6.60306144664872E-05 -111.271517041719 6.68879745861084E-05 -111.444022328435 
                               0.000130221403839468 -105.009958489534 0.000145746264239427 -104.856057927365 0.993042971522751 -3.83969224536565 0.000624248859078597 172.046628601465 
                               0.000130926253928044 72.5623173396635 0.000114605800832034 72.3703332377113 6.47014567658092E-05 81.8727744627717 6.78679255704335E-05 81.4745323002559 
                               6.33406981892528E-05 82.0411939200829 6.71076580483438E-05 81.3473277355761 0.0107947728376672 82.3445103591912 0.0122634174898345 -60.3906307921453 
                               6.3524488123358E-05 -112.81680680118 6.48880822590219E-05 -112.605294000912 6.72316186738067E-05 -111.504821971847 6.79945969141491E-05 -111.711210527502 
                               0.000112976082739127 -105.139101151568 0.000127357114794538 -104.87399310662 0.000624398188014788 172.071167250262 0.993098539130404 -3.80684446967229 
                               3.15099401475617E-05 -105.732500318482 4.83627187374885E-05 -102.9611405601  0.00108548547903222 -142.39098876727 0.00047372806794714 -106.298141345662 
                               0.993931688449716 -4.07393230044381 0.000483609624819168 -108.690043997698 6.31701597745931E-05 -112.483222279177 6.35244881233579E-05 -112.81680680118 
                               0.00577000992967693 -21.702226631999 0.0129465118756631 81.8899122006544 0.000719098327160865 75.1175893115664 0.000585512080521813 74.6967759592489 
                               4.88469183004629E-05 75.4997870099109 3.19283784743999E-05 73.8741013286102 6.31743408166422E-05 64.7530490968979 6.34319513566019E-05 64.2668434572679 
                               4.01160842220532E-05 -104.985042502584 6.49074942053227E-05 -101.962304253002 0.993893792086908 -4.09625792743693 0.000447671249252829 -111.104002085081 
                               0.00109405509305252 -142.519793560412 0.00040639304402547 -119.581377940341 6.46260019874426E-05 -112.241310496462 6.48880822590219E-05 -112.605294000912 
                               0.0129465118756631 81.8899122006543 0.00581709417105009 -22.1272723393281 0.00127631422588436 76.7279714596794 0.000807172848035883 75.4283382682794 
                               6.53720973809778E-05 75.5679275241971 4.06738464244316E-05 74.3674877247116 6.46201496246741E-05 65.012511855408  6.47818820570442E-05 64.5071634176722 
                               2.45901407909094E-05 -104.790040299747 3.67911296512376E-05 -101.786490679542 0.00040617823032346 -119.42017030058 0.00108298530370479 -136.245354361164 
                               0.00048356516849294 -108.995308175083 0.994291574371563 -3.84701265408725 6.60306144664871E-05 -111.271517041719 6.72316186738068E-05 -111.504821971847 
                               0.000719098327160865 75.1175893115664 0.00127631422588436 76.7279714596794 0.00541942970784603 -20.6737602482883 0.0122756082151515 82.0924786638635 
                               3.69998257265005E-05 75.7831288846154 2.49987380220561E-05 74.4636503786268 6.60095891513202E-05 66.0290651588145 6.71212787213455E-05 65.6921433745318 
                               3.48601331791688E-05 -103.604860839492 5.82345612614293E-05 -100.520267017063 0.000447463451079129 -110.613578074942 0.99421333867417 -3.88552991121541 
                               0.000473632394319941 -106.301591279557 0.00108197799417354 -136.586167780155 6.68879745861085E-05 -111.444022328435 6.79945969141492E-05 -111.711210527502 
                               0.000585512080521813 74.696775959249  0.000807172848035883 75.4283382682794 0.0122756082151515 82.0924786638637 0.00551320280387484 -21.2782611697032 
                               5.85463345852005E-05 76.1868811527674 3.50589392547288E-05 74.9819640004345 6.686126636152E-05 65.8154710360727 6.78699849690725E-05 65.47444066277   
                               0.00385410513935773 -107.48484796972 0.993320851855651 -4.56931196697546 6.49869961583342E-05 -101.927263597637 5.83303738733169E-05 -100.553874769196 
                               4.8402036627423E-05 -103.194746701843 3.68339611700862E-05 -102.314795871452 0.000130221403839468 -105.009958489534 0.000112976082739127 -105.139101151568 
                               4.88469183004629E-05 75.4997870099108 6.53720973809779E-05 75.567927524197  3.69998257265005E-05 75.7831288846153 5.85463345852007E-05 76.1868811527673 
                               0.00605221897810242 14.189586813278  0.0204115526503737 83.0262715608791 0.000132881457598074 78.7441916642039 0.000114461635825898 78.0487952162356 
                               0.993345935437793 -4.56154054037338 0.00385364481379889 -107.513208697863 4.01648373505366E-05 -103.806204691052 3.49317784308358E-05 -102.286403316713 
                               3.15246014689724E-05 -104.813927500346 2.46168427263598E-05 -103.896600394064 0.000145746264239427 -104.856057927365 0.000127357114794538 -104.87399310662 
                               3.19283784743999E-05 73.8741013286102 4.06738464244316E-05 74.3674877247114 2.49987380220561E-05 74.4636503786268 3.50589392547288E-05 74.9819640004344 
                               0.0204115526503737 83.0262715608792 0.00601629141655442 13.4857352632462 0.000156264782711422 79.3288787812883 0.000130763620895889 78.4304369917851 
                               0.000145627857786149 -104.44532109584 0.000130139887827337 -104.366385752303 6.43791767848142E-05 -100.640643716582 6.66159203593072E-05 -100.980343359408 
                               6.2934170240507E-05 -100.504645626258 6.56905462777059E-05 -101.134953108315 0.993042971522751 -3.83969224536564 0.000624398188014793 172.071167250263 
                               6.31743408166422E-05 64.7530490968979 6.46201496246741E-05 65.012511855408  6.60095891513203E-05 66.0290651588145 6.686126636152E-05 65.8154710360727 
                               0.000132881457598074 78.7441916642037 0.000156264782711422 79.3288787812884 0.0119406616081383 -62.9942620767864 0.0108105049774863 81.635230577636  
                               0.000127184301269489 -104.823943779755 0.000112831868355795 -104.856985250164 6.43433516639385E-05 -101.032261770626 6.73344081515683E-05 -101.401448016768 
                               6.30306530556014E-05 -100.887621278329 6.6363659210063E-05 -101.491254333838 0.000624248859078635 172.046628601466 0.993098539130404 -3.80684446967233 
                               6.34319513566019E-05 64.2668434572679 6.4781882057044E-05 64.5071634176722 6.71212787213455E-05 65.6921433745318 6.78699849690726E-05 65.4744406627701 
                               0.000114461635825898 78.0487952162356 0.000130763620895889 78.430436991785  0.0108105049774863 81.635230577636  0.0119034882509181 -63.1357072511181 
0.05                           0.0147712516918864 47.6472203523699 0.0405425941626351 78.1980979329792 7.72206934268201E-05 75.4797863568655 6.75123100090523E-05 78.1362311655303 
                               6.05306389815912E-05 73.5136512883274 4.74436348329084E-05 74.9725733322874 0.00030636347078579 67.9114371693126 0.000256207335825913 68.1453239706583 
                               6.09220521822376E-05 -109.212471685952 7.75660169331175E-05 -108.793321254939 4.77235031236739E-05 -108.505115483639 6.77165383792324E-05 -107.854858449606 
                               0.00751699893787183 -109.327570576396 0.991615003238454 -9.61416944957128 0.000285239197122804 -105.655569620064 0.000248920414177142 -106.141557810182 
                               0.0405425941626351 78.1980979329793 0.0149420455035186 47.7305623289788 0.000125867991938473 80.2244866025693 0.000113519923687895 82.7074481860033 
                               9.32228890153289E-05 77.677293651845  7.13277214811625E-05 79.3148862302054 0.000260583821992861 67.6366969454827 0.0002242322769705 67.9350547779232 
                               9.39526974398313E-05 -105.916279488457 0.000126194265763109 -105.14791320535 7.1805727562734E-05 -104.940597895015 0.000113767827375692 -103.899085186551 
                               0.991589064228065 -9.62955977861924 0.00751516435605187 -109.38425739006 0.000255128550515741 -105.667218135506 0.000220886892246655 -106.197108812409 
                               7.722069342682E-05 75.4797863568654 0.000125867991938473 80.2244866025689 0.00732436982220145 -40.6777393322412 0.00158513566005089 79.7779943813101 
                               0.0256432589887466 78.9201305491198 0.00252004096741991 79.9846432058521 0.000124880873761629 92.2261185501119 0.000124675795046156 92.3188424302747 
                               0.00169741953240664 -124.120578698239 0.992710596768439 -8.14198531315397 0.000755019986983767 -113.654927056258 0.000863903516542893 -108.658971550361 
                               0.000126683980692074 -105.033323663155 7.80251347058658E-05 -106.316970739008 0.000128487469650387 -93.7653661953822 0.000128020761757563 -93.7611074587842 
                               6.75123100090522E-05 78.1362311655301 0.000113519923687895 82.7074481860029 0.00158513566005089 79.77799438131   0.00685079789797914 -39.6746305534299 
                               0.0011437043624042 79.47923481347   0.0243239122929826 79.4310420358887 0.000129382558289603 91.362553392048  0.000130724049419624 91.1995317100915 
                               0.000927217963654752 -106.206238939089 0.000864030279518261 -109.657011107045 0.00178939104581654 -121.163033520774 0.993109194399502 -7.723170201157  
                               0.000114368024775845 -103.924654125612 6.82906633149515E-05 -105.050761204783 0.000132832540921832 -94.5623180695591 0.000134002878769841 -94.6950141695044 
                               6.05306389815912E-05 73.5136512883275 9.32228890153289E-05 77.6772936518452 0.0256432589887466 78.92013054912   0.0011437043624042 79.47923481347   
                               0.00722988864741098 -40.1125067280425 0.00140898749696997 79.0279127823128 0.000122162544764024 92.6316403754616 0.00012218722259147 92.7288515899551 
                               0.992747732740674 -8.09733458020718 0.00169536849925782 -123.971178112796 0.000939963257577947 -108.22723742907 0.000926478040584437 -106.208754459856 
                               9.41075107264356E-05 -106.330916918746 6.11074293077097E-05 -107.289149537972 0.000125748551503475 -93.4203681139634 0.000125507750818761 -93.4246019982221 
                               4.74436348329084E-05 74.9725733322872 7.13277214811626E-05 79.3148862302054 0.00252004096741991 79.9846432058521 0.0243239122929826 79.4310420358886 
                               0.00140898749696996 79.0279127823128 0.00669711618812539 -38.774896538454 0.000127553686256518 90.9609414741181 0.000129163942595386 90.840164259451  
                               0.000940938452507234 -107.613183515186 0.000755428533196506 -113.995235497808 0.993188819465273 -7.64679406213294 0.00178704533208983 -121.045513281798 
                               7.19546619601794E-05 -105.941982294538 4.79183696102747E-05 -106.63465623748 0.000130908962203606 -94.8814909608216 0.000132312935392344 -95.018850584317 
                               0.00030636347078579 67.9114371693127 0.000260583821992861 67.6366969454825 0.000124880873761629 92.2261185501119 0.000129382558289603 91.3625533920478 
                               0.000122162544764024 92.6316403754615 0.000127553686256518 90.9609414741181 0.0133966473032429 -68.1637300398587 0.0214394848255706 79.8261291990574 
                               0.00012675023721051 -117.340411739988 0.000129501070333387 -116.971339103929 0.000131824750671125 -115.298378395556 0.000133614423984478 -115.595506592083 
                               0.00025473240777759 -107.045581163963 0.000285052010872764 -106.569910755161 0.992193995453117 -8.17932257141772 0.000482719934488723 160.030706865472 
                               0.000256207335825913 68.1453239706581 0.0002242322769705 67.9350547779228 0.000124675795046156 92.3188424302747 0.000130724049419624 91.1995317100914 
                               0.000122187222591469 92.7288515899549 0.000129163942595386 90.8401642594505 0.0214394848255706 79.8261291990572 0.0133321144175568 -68.2325821235778 