! Touchstone file exported from HFSS 3D Layout Design 2026.1.0
!        File:           D:/Data/SIVerse/2620R1/CouplingIdentification/si-verse_v1.1_cutout_FF.aedt
!        Generated:      01:31:52 PM Jan  6, 2026
!        Design:         main
!        Project:        si-verse_v1.1_cutout_FF
!        Setup:          Setup1
!        Solution:       Sweep1
!
# GHz S MA R 50.000000
! Terminal data exported
! Port[1] = U1_AG11
! Port[2] = U1_AH18
! Port[3] = U1_AH23
! Port[4] = U1_AH24
! Port[5] = U1_AJ11
! Port[6] = U1_AJ18
! Port[7] = U1_AU16
! Port[8] = U1_AU17
! Port[9] = U9_20
! Port[10] = U9_22
! Port[11] = X1_A11
! Port[12] = X1_A12
! Port[13] = X1_B5
! Port[14] = X1_B6
! Port[15] = X1_B14
! Port[16] = X1_B15
0.1                            0.334619183991884 -2.91643275381093 0.000853030924294135 75.0692260124147 0.00045022503855322 86.9157919733446 0.000450053692626104 86.8203557320547 
                               0.00459221748871036 74.0859270980465 0.00127589661042507 76.7085234357137 0.000789163137402112 83.2086073891912 0.00076692282291171 83.5035163110888 
                               0.000341077047034385 -6.54721427851193 0.662587269449215 -14.8560579375715 0.000490220461813084 -117.917885100414 0.000490527160436928 -117.885949295778 
                               0.000798114852476107 -108.101794487331 0.000795828294116176 -107.941316482447 0.000110196642961788 -124.99029599668 9.59383601391114E-05 -122.197400919257 
                               0.000853030924294126 75.0692260124146 0.0148518049773769 43.2316109647445 0.000233225364666598 73.5755760245853 0.000229498734149112 73.3666973641513 
                               0.000856796930354604 74.7802038517581 0.0270081992416032 69.556902574414  0.00119353443934185 68.8810831864237 0.000952843585203246 67.8842175473757 
                               0.000416057766736824 78.5323947195852 0.000303463061166011 86.8465864724978 0.000239243452412779 -126.086797787455 0.000242428230073162 -125.700040938051 
                               0.000407281178395326 -125.12957228995 0.000461793354619315 -122.824336887635 0.00395226896296515 -117.463645008811 0.989557619406317 -16.3604698864374 
                               0.000450225038553217 86.9157919733443 0.000233225364666586 73.5755760245862 0.00704715750723974 -24.6712056085136 0.0543124581415089 72.6368672800855 
                               0.000459851224816969 88.0919308103305 0.000231642989720223 73.2585428260235 0.00052993594134632 91.3907786826406 0.000536747654308875 91.3303051396815 
                               0.000508324394795842 -103.496355961036 0.000497482444539751 -102.178935476527 0.00252045418945497 -122.280114371897 0.988910716829665 -15.8098254422664 
                               0.000566329964832204 -99.9904830264861 0.000571361788133912 -99.980644980445 0.000238440558706375 -104.230550765108 0.00024000255092261 -104.273762481095 
                               0.000450053692626104 86.8203557320549 0.000229498734149116 73.3666973641535 0.0543124581415093 72.636867280085  0.00712060827236782 -27.5737542816229 
                               0.000459362401597078 87.9973689162176 0.000227671581253249 72.8967534911956 0.000531346854107997 91.267655615575  0.000537348366923478 91.2481665018798 
                               0.000507790807865553 -103.603003834179 0.000497190656723311 -102.275022896088 0.988847506548567 -15.9181588640253 0.00252370164922367 -122.47410627537 
                               0.000568116871619528 -100.10616843237 0.000573184690531576 -100.090134729288 0.000234811605499499 -104.206598846475 0.000236117596637471 -104.317710983499 
                               0.00459221748872959 74.0859270980445 0.000856796930354449 74.7802038517523 0.000459851224817189 88.0919308102697 0.000459362401590797 87.997368916952  
                               0.33434276347589 -3.21372237432531 0.00060137502094966 74.8838506156349 0.000936835519674824 82.5731379241966 0.000840160378317837 83.7647265068269 
                               0.662364594233413 -14.6512151525608 0.000583198946506083 37.5232584687396 0.000500990822231422 -116.789893154777 0.000501592373723654 -116.748166930163 
                               0.000802766329905465 -107.28896777292 0.00081646374667716 -107.186345201487 0.000170480170655905 -114.648566931466 2.20634396560734E-05 173.050683847902 
                               0.00127589661042508 76.7085234357144 0.0270081992416034 69.5569025744145 0.000231642989720224 73.2585428260233 0.00022767158125325 72.8967534911954 
                               0.000601375020946101 74.8838506160101 0.0129615588741607 35.4613837502116 0.00148407533573899 69.4654613653013 0.00160156608239521 69.3914424235452 
                               7.78690781940614E-05 120.790202393691 0.000488359691448047 79.9790330891763 0.000236700317718562 -125.69120971664 0.000240133530165595 -125.430987657213 
                               0.000484790239841639 -124.749357192292 0.000502141698811588 -123.432527886958 0.989630790471195 -16.2569031200928 0.00394246102723558 -118.461149665943 
                               0.000789163137402107 83.2086073891911 0.00119353443934186 68.8810831864236 0.000529935941346319 91.3907786826408 0.000531346854108 91.2676556155752 
                               0.000936835519674839 82.5731379242316 0.001484075335739 69.4654613653015 0.0081661672686251 -43.8903157657801 0.0525371249118147 72.32007736916   
                               0.000727696778268893 -117.879093307544 0.000793237764505813 -115.885740058207 0.00057770387354089 -124.985908597135 0.000576142652280622 -125.035868187163 
                               0.98867180432087 -16.4058525141239 0.00123458721799748 -137.419158300813 0.000486292631931251 -121.378480182161 0.000408028067781741 -120.890862174151 
                               0.000766922822911709 83.5035163110888 0.00095284358520325 67.8842175473759 0.00053674765430888 91.3303051396815 0.000537348366923473 91.2481665018799 
                               0.000840160378316243 83.7647265067226 0.0016015660823952 69.3914424235453 0.0525371249118154 72.3200773691602 0.00819734655788257 -44.1746034608481 
                               0.000795392980095968 -117.662717137756 0.000800361662329633 -115.911236039962 0.000582838048448418 -124.837223552412 0.000581250697970608 -124.886203833829 
                               0.00123912108993586 -137.783670823555 0.988731511681309 -16.3041471906364 0.000503919631253321 -120.696605868279 0.000463665166919598 -119.424200877331 
                               0.000341077047034329 -6.54721427852586 0.000416057766737257 78.5323947195589 0.000508324394796242 -103.496355960691 0.000507790807872634 -103.603003836798 
                               0.662364594233414 -14.6512151525609 7.78690782019351E-05 120.790202399946 0.000727696778268397 -117.879093307545 0.000795392980095075 -117.662717137924 
                               0.337647714018703 -27.7680862065825 0.00881054604737766 73.8310737268105 0.000450517801880482 51.2402942332188 0.00045104824459556 51.2767779201701 
                               0.00100367315327381 56.1470868161961 0.000856865009827282 53.5384293646205 0.000812061678775896 68.053294735156  0.00126529860465647 68.9567255938932 
                               0.662587269449211 -14.8560579375716 0.000303463061166012 86.8465864724977 0.000497482444539748 -102.178935476528 0.000497190656723311 -102.275022896087 
                               0.000583198946508477 37.5232584689127 0.000488359691448042 79.9790330891765 0.000793237764505813 -115.885740058206 0.000800361662329639 -115.911236039963 
                               0.00881054604738359 73.8310737268354 0.336924477842512 -27.2517687066381 0.000444178075351301 52.6793709590033 0.000444290164645063 52.7143640743122 
                               0.000791910585912639 53.4455965147588 0.000761197906530717 52.7671655870467 0.00185007858127832 67.1575964548101 0.00122562776718963 68.245815730269  
                               0.000490220461813085 -117.917885100414 0.000239243452412799 -126.086797787454 0.00252045418945435 -122.280114371901 0.988847506548561 -15.9181588640254 
                               0.000500990822229712 -116.789893154832 0.000236700317718561 -125.69120971664 0.000577703873540898 -124.985908597134 0.000582838048448414 -124.837223552412 
                               0.000450517801879087 51.2402942339609 0.00044417807535127 52.6793709590011 0.00918700117229437 -26.8264156227205 0.0543400863381931 72.8952675267582 
                               0.000550246267306725 43.1287285517881 0.000556114335391285 43.3494396532875 0.000231292799275072 56.8260864098909 0.000232969337582201 55.9592343074697 
                               0.000490527160436928 -117.885949295778 0.000242428230073163 -125.700040938053 0.988910716829665 -15.8098254422664 0.00252370164922336 -122.474106275374 
                               0.000501592373723389 -116.748166929962 0.000240133530165595 -125.430987657213 0.000576142652280619 -125.035868187164 0.000581250697970606 -124.886203833829 
                               0.000451048244591965 51.2767779203938 0.000444290164645041 52.7143640743104 0.0543400863381928 72.8952675267584 0.00902920001025931 -24.5978787521798 
                               0.000549052555379669 43.0805284579797 0.000555692624135678 43.3445624429452 0.000235377072073209 56.7542072252981 0.000236932164484283 56.083644164101  
                               0.000798114852476107 -108.101794487332 0.000407281178395335 -125.12957228995 0.000566329964832202 -99.9904830264865 0.000568116871619529 -100.10616843237 
                               0.000802766329905116 -107.288967772944 0.00048479023984164 -124.749357192292 0.988671804320871 -16.4058525141239 0.0012391210899359 -137.783670823551 
                               0.00100367315327364 56.1470868161987 0.000791910585912643 53.4455965147589 0.000550246267306725 43.1287285517881 0.000549052555379668 43.0805284579797 
                               0.0102509609010761 -37.658428539712 0.0525455014599212 72.5160328828494 0.0014858486620057 69.944543177323  0.0011933313410725 69.5805018099612 
                               0.000795828294116176 -107.941316482448 0.000461793354619321 -122.824336887635 0.000571361788133904 -99.9806449804453 0.000573184690531574 -100.090134729288 
                               0.000816463746675841 -107.186345201498 0.000502141698811581 -123.432527886958 0.00123458721799741 -137.419158300816 0.988731511681309 -16.3041471906365 
                               0.000856865009827525 53.5384293646142 0.000761197906530718 52.7671655870468 0.000556114335391285 43.3494396532887 0.000555692624135682 43.3445624429462 
                               0.0525455014599204 72.5160328828486 0.0101852150725372 -38.0759129525537 0.00160370600789499 70.4808133786133 0.000952251566619935 69.3452213866958 
                               0.000110196642961787 -124.99029599668 0.00395226896296536 -117.46364500881 0.000238440558706376 -104.230550765108 0.000234811605499498 -104.206598846474 
                               0.000170480170655843 -114.648566931114 0.989630790471192 -16.2569031200928 0.000486292631931247 -121.378480182162 0.000503919631253332 -120.696605868278 
                               0.00081206167877376 68.0532947353305 0.00185007858127832 67.1575964548103 0.000231292799275072 56.8260864098907 0.000235377072073208 56.7542072252982 
                               0.0014858486620057 69.9445431773223 0.00160370600789499 70.4808133786136 0.0136152856470724 31.7125136808288 0.0270496771149605 75.0467725215068 
                               9.59383601391138E-05 -122.197400919256 0.989557619406315 -16.3604698864374 0.000240002550922611 -104.273762481096 0.000236117596637484 -104.317710983499 
                               2.20634396559791E-05 173.050683847623 0.00394246102723559 -118.461149665945 0.000408028067781741 -120.890862174152 0.000463665166919605 -119.42420087733 
                               0.00126529860465607 68.95672559389   0.00122562776718962 68.2458157302688 0.000232969337582199 55.9592343074692 0.000236932164484281 56.0836441641016 
                               0.0011933313410725 69.5805018099609 0.000952251566619931 69.3452213866955 0.0270496771149606 75.0467725215068 0.0159909950404728 36.2244932098545 
0.1245                         0.334081948583672 -3.62608986053608 0.00106001972654588 72.5325488057563 0.000551482058533063 88.3037996648464 0.000551311685646205 88.1881802844841 
                               0.0056517703713002 71.018955658476  0.00158452695238682 74.3963776594351 0.000981582174543535 83.3606417841153 0.000954333662370263 83.7482697549354 
                               0.000574338132471597 -21.115539428536 0.661903202549668 -18.4720981228702 0.000630622095095369 -123.259858021102 0.000631059074659558 -123.224308036375 
                               0.00102432754153738 -111.16109936544 0.00102145619043227 -110.985956792234 0.000138581178404742 -122.51938852388 0.000121993311822243 -119.9133749258  
                               0.00106001972654589 72.5325488057561 0.0172335717087392 44.1781573152876 0.000288270086196686 71.8540096091652 0.000284155946562831 71.6170466411795 
                               0.00106259085945199 72.0892458850684 0.0333542506669106 65.0656246956212 0.00147810692987587 64.9813425760733 0.00117908218737691 63.8989120887421 
                               0.000508095350226367 74.2202585575897 0.000373840489427635 83.5799254336923 0.000304499700863382 -133.185687989149 0.000306394157718379 -132.348554557601 
                               0.000510275827066103 -130.241264679643 0.000578206141814449 -128.049949793441 0.00488713882385583 -121.030705814394 0.988485991729123 -20.3415685222029 
                               0.000551482058533056 88.3037996648464 0.000288270086196656 71.8540096091681 0.00720308122152494 -33.3580719902413 0.0669809445811624 68.9421268445393 
                               0.000563205021367085 89.7802112447273 0.000286561090542714 71.5408654042367 0.000657234103712851 93.9136801570846 0.000665685901146525 93.8252298027282 
                               0.000659481459187843 -105.495326500425 0.000645219266122171 -103.91460892109 0.00305134783146559 -120.094500750157 0.987136431114909 -19.6279310492166 
                               0.00072995719751522 -100.938310898549 0.000736088122037408 -100.920255384447 0.000300448829358422 -105.181181419848 0.000301604921797373 -105.223263959381 
                               0.000551311685646204 88.1881802844846 0.000284155946562839 71.6170466411836 0.0669809445811623 68.9421268445386 0.00731052339295853 -36.8451992162875 
                               0.000562601567288952 89.6688339057414 0.000281675652362993 71.1079705940134 0.000658989910702472 93.7550839711318 0.000666503060403229 93.7169188515459 
                               0.000658708759350572 -105.631367578825 0.000644814183019478 -104.029018288259 0.987069436373331 -19.7624456325134 0.00307405949824483 -120.439741218304 
                               0.000732149205698644 -101.083903974097 0.000738328047080052 -101.061125035728 0.000295952913920277 -105.135414676464 0.000296834727135145 -105.345790213152 
                               0.00565177037135276 71.0189556583877 0.0010625908594517 72.0892458850625 0.000563205021367558 89.7802112446181 0.000562601567277215 89.6688339073518 
                               0.333679922848245 -3.98685362549596 0.000746873225269184 72.4522504511213 0.00116227172765817 82.4511760677047 0.00104422812215984 84.0295135891149 
                               0.661528354038279 -18.2151663601173 0.000774190025866087 20.4401720772152 0.000644642967626235 -121.872530961002 0.000645508514489134 -121.825437008791 
                               0.00103188986140137 -110.026502591135 0.00104863729043158 -109.998293206324 0.000216049413043374 -115.883419307831 1.82335274943275E-05 -165.837434163002 
                               0.00158452695238684 74.3963776594357 0.033354250666911 65.065624695622  0.000286561090542716 71.5408654042363 0.000281675652362994 71.1079705940132 
                               0.000746873225264232 72.4522504521352 0.0148194903576532 36.0646404354207 0.0018366955821835 65.6339044502232 0.00198171539255473 65.505605122433  
                               9.56291304231722E-05 120.697574412623 0.000600740880851598 75.5200013906709 0.000299846921224833 -132.220443854962 0.000304000180575623 -131.913144415308 
                               0.000605188434982168 -129.850335445554 0.000626412068434888 -128.223258406423 0.988573412558298 -20.2130948024755 0.00486516640785998 -122.238746103732 
                               0.000981582174543531 83.3606417841152 0.00147810692987587 64.9813425760733 0.000657234103712851 93.9136801570846 0.000658989910702475 93.7550839711318 
                               0.00116227172765856 82.4511760677503 0.0018366955821835 65.6339044502233 0.00799021765497698 -51.3206706752853 0.0648505318524758 68.4038558618714 
                               0.000949162570450311 -122.864841060035 0.00102704246592388 -120.730941769866 0.00074943758360891 -131.714782347682 0.000747647556754444 -131.768247647807 
                               0.987074782013356 -20.429949748549 0.00148696227118079 -133.149838871195 0.000607194738355013 -125.374404205394 0.000510853779355568 -124.650236634412 
                               0.000954333662370263 83.7482697549354 0.00117908218737692 63.8989120887425 0.000665685901146531 93.8252298027283 0.000666503060403221 93.7169188515461 
                               0.00104422812215622 84.0295135890011 0.00198171539255471 65.5056051224335 0.0648505318524772 68.4038558618724 0.00805671750711821 -51.6120232895036 
                               0.00103193432624778 -122.831789798545 0.00103538621731088 -120.796484003617 0.000755765952727234 -131.541730000907 0.000753929522599278 -131.591750500865 
                               0.00149088738883662 -133.642092298542 0.987139480773456 -20.3035897152615 0.000628812176189725 -124.529270842217 0.000580253803844353 -123.557077757375 
                               0.000574338132471471 -21.1155394285477 0.000508095350227109 74.2202585575482 0.000659481459191153 -105.495326499871 0.000658708759350639 -105.631367584048 
                               0.661528354038279 -18.2151663601174 9.56291304391581E-05 120.697574422322 0.000949162570449435 -122.864841060031 0.00103193432624593 -122.831789798732 
                               0.338949716538709 -34.4616114456   0.0107675315724596 70.3535972025509 0.00054560815928499 42.0199791362841 0.000546303763348645 42.0521053584415 
                               0.00123090587102989 48.1945068751346 0.00105444950244161 44.9104677470926 0.00100485342645256 63.5529172407965 0.00156525253358711 64.4562105421507 
                               0.661903202549664 -18.4720981228703 0.000373840489427642 83.5799254336913 0.000645219266122164 -103.914608921091 0.000644814183019479 -104.029018288258 
                               0.000774190025870242 20.4401720774366 0.000600740880851596 75.5200013906709 0.00102704246592388 -120.730941769866 0.00103538621731089 -120.796484003618 
                               0.0107675315724724 70.3535972025677 0.337837820200676 -33.8470000275484 0.000541037976486526 43.8288940125564 0.000541024858302711 43.8625045210527 
                               0.000976745872149093 44.8482943679423 0.000940115350471302 44.0000237290521 0.00229733475102546 62.1763072518442 0.00151931046692836 63.6559521258482 
                               0.00063062209509537 -123.259858021102 0.000304499700863529 -133.185687989141 0.00305134783146469 -120.094500750181 0.98706943637332 -19.7624456325135 
                               0.000644642967622966 -121.872530960957 0.000299846921224834 -132.220443854962 0.000749437583608923 -131.714782347682 0.000755765952727227 -131.541730000907 
                               0.000545608159283335 42.0199791377298 0.000541037976486433 43.8288940125499 0.0105661436617329 -33.6114336048056 0.0669986794833318 69.2758496270268 
                               0.00069635959710465 32.5235955980987 0.000703644659487411 32.8088256015438 0.000288269047741841 50.7985532798277 0.000290095900019925 49.6218924720987 
                               0.000631059074659559 -123.224308036374 0.000306394157718375 -132.348554557605 0.98713643111491 -19.6279310492167 0.00307405949824475 -120.439741218308 
                               0.000645508514489779 -121.825437008426 0.000304000180575622 -131.913144415308 0.000747647556754435 -131.768247647807 0.000753929522599272 -131.591750500865 
                               0.000546303763341491 42.0521053590828 0.000541024858302641 43.8625045210474 0.0669986794833319 69.275849627027  0.0103440061608718 -31.2514645681046 
                               0.00069501105844681 32.464354738625  0.000703161000291448 32.8018140168939 0.000293371235090228 50.7006006685995 0.000294951875309094 49.8372533623052 
                               0.00102432754153738 -111.16109936544 0.000510275827066118 -130.241264679643 0.000729957197515214 -100.938310898549 0.000732149205698645 -101.083903974097 
                               0.00103188986140052 -110.026502591154 0.000605188434982158 -129.850335445555 0.987074782013357 -20.429949748549 0.00149088738883681 -133.642092298541 
                               0.00123090587102967 48.1945068751378 0.0009767458721491 44.8482943679426 0.000696359597104652 32.5235955980986 0.000695011058446812 32.4643547386248 
                               0.0115805920056691 -40.7890428821949 0.0648553577761552 68.70143406917   0.00183994695679452 66.1635376132626 0.00147759493067473 65.768713609132  
                               0.00102145619043227 -110.985956792234 0.000578206141814452 -128.049949793441 0.000736088122037395 -100.920255384447 0.000738328047080048 -101.061125035728 
                               0.00104863729042911 -109.9982932063  0.000626412068434882 -128.223258406424 0.00148696227118071 -133.149838871201 0.987139480773455 -20.3035897152616 
                               0.00105444950244194 44.9104677470794 0.000940115350471304 44.0000237290519 0.000703644659487414 32.8088256015453 0.000703161000291457 32.8018140168954 
                               0.064855357776154 68.7014340691684 0.0114927165799865 -41.2493733026978 0.00198529655881103 66.7943622393967 0.00117771630934947 65.6045239840035 
                               0.000138581178404735 -122.519388523879 0.00488713882385599 -121.030705814394 0.000300448829358424 -105.181181419848 0.000295952913920276 -105.135414676464 
                               0.000216049413043297 -115.883419307301 0.988573412558296 -20.2130948024755 0.000607194738355012 -125.374404205395 0.000628812176189737 -124.529270842217 
                               0.00100485342645036 63.5529172411798 0.00229733475102547 62.1763072518444 0.000288269047741841 50.7985532798274 0.000293371235090227 50.7006006685995 
                               0.00183994695679452 66.1635376132619 0.00198529655881104 66.7943622393977 0.0157388586517692 30.9482414422568 0.0333967047159293 71.9327728206823 
                               0.000121993311822246 -119.9133749258  0.988485991729122 -20.3415685222029 0.000301604921797371 -105.223263959382 0.000296834727135176 -105.345790213154 
                               1.82335274940784E-05 -165.837434163261 0.00486516640786006 -122.238746103735 0.000510853779355572 -124.650236634413 0.000580253803844357 -123.557077757375 
                               0.00156525253358639 64.4562105421495 0.00151931046692837 63.6559521258482 0.000290095900019921 49.6218924720983 0.000294951875309092 49.8372533623066 
                               0.00147759493067473 65.7687136091315 0.00117771630934946 65.6045239840031 0.0333967047159297 71.9327728206823 0.0188128772917776 34.7436903484597 
0.149                          0.333417210492241 -4.32714397907245 0.00126699564864369 69.8470583246367 0.000648804252827399 90.1223825828007 0.000648671766411008 89.9844834488458 
                               0.00667192276970731 67.9361338902341 0.00189184683040263 71.9934500751066 0.00117666662245271 83.6841887306798 0.00114475963477867 84.1690716979738 
                               0.000863619266796799 -32.8096476186298 0.661120140019838 -22.0826089090406 0.000786684895343027 -128.690265574153 0.000787296025631248 -128.650486020446 
                               0.00127472772410948 -114.418806868733 0.00127124549778238 -114.226147624626 0.000171886884901448 -121.019278648455 0.000153084648270459 -118.658627626455 
                               0.0012669956486437 69.8470583246365 0.0195308643614815 43.8776378429639 0.000342760459612485 70.0249146996848 0.00033835219490184 69.7558534145952 
                               0.0012666688746044 69.2827759952278 0.0395429046325837 60.5050287316169 0.00175989508446612 60.9482406413167 0.0014025164250115 59.7663294895507 
                               0.000593660395862798 70.3842386393041 0.000441990601423618 80.95569689751   0.000389867168153455 -142.018260565017 0.000374381477952022 -139.213725813082 
                               0.000617898972046463 -135.76346916266 0.000698964798873695 -133.612940895898 0.00581308650992423 -124.943731886297 0.987302639499699 -24.3145482382187 
                               0.000648804252827392 90.122382582801  0.000342760459612432 70.0249146996895 0.00734675981511044 -42.3714986223287 0.0792894005732873 65.2047315186674 
                               0.00066265291915413 91.9141417526386 0.000341135133967865 69.6372267811124 0.000786641127148301 96.833158990739  0.000796673907349977 96.7090580269015 
                               0.000831843448749739 -107.720157947728 0.000812913089132081 -105.886704201722 0.00360102796236806 -119.696915946534 0.985247966976907 -23.4346407907684 
                               0.000914289477255537 -102.020990635056 0.000921399680831402 -101.991817525106 0.000366045768849726 -106.243729547773 0.000366685346135424 -106.196719847359 
                               0.000648671766411007 89.9844834488463 0.000338352194901849 69.7558534145999 0.0792894005732865 65.2047315186666 0.00749876220979678 -46.3732006408245 
                               0.000661991756024489 91.7844535289625 0.000335368966711959 69.1328243518523 0.000788721107407925 96.6358784416692 0.000797735423348519 96.5711127685601 
                               0.000830701365996977 -107.878622044902 0.000812358468696036 -106.019715015736 0.985174214732144 -23.5954048652217 0.00364635704780132 -119.923755393796 
                               0.000916853285856357 -102.196292028385 0.000924021231569201 -102.163471300457 0.000360698283038243 -106.177127136463 0.000360781714684634 -106.378013047843 
                               0.00667192276980016 67.9361338899913 0.00126666887460402 69.2827759952232 0.000662652919154722 91.9141417525017 0.000661991756011274 91.784453531237  
                               0.332869950334483 -4.74644527658235 0.000892177585241602 69.9111068207276 0.00138825051452378 82.4929745727247 0.00125055898705375 84.4697198237679 
                               0.660587750911082 -21.7716202308933 0.000998632243439212 4.80452019221797 0.000804861374143759 -127.050409176569 0.00080603255531846 -127.000848726886 
                               0.00128660661347889 -112.992672968361 0.00130613775519169 -113.015942241501 0.000265651958918111 -117.447163099964 2.22440613370029E-05 -127.99041834047 
                               0.00189184683040266 71.9934500751066 0.0395429046325843 60.5050287316176 0.000341135133967867 69.6372267811119 0.00033536896671196 69.1328243518521 
                               0.000892177585241827 69.9111068223232 0.016630169153769 35.3783010016081 0.0021860348832402 61.6712724895451 0.00235764413768248 61.4867161745758 
                               0.000115678655129659 122.537773623641 0.00070889621863957 71.4830007833756 0.000367466712119619 -139.086381205185 0.000372264117418603 -138.734407570969 
                               0.000729487836685401 -135.356520614408 0.000754418054354213 -133.43013441393 0.987405658672755 -24.1613077674367 0.00577394058840426 -126.348171361867 
                               0.00117666662245271 83.6841887306798 0.00175989508446612 60.9482406413166 0.000786641127148304 96.833158990739  0.000788721107407928 96.6358784416689 
                               0.00138825051452458 82.4929745727648 0.00218603488324021 61.6712724895452 0.00778203599999594 -59.9711619956501 0.0768152490662751 64.470263615624  
                               0.00120344339772333 -128.015629811101 0.00129114934384388 -125.730415863378 0.000943834721472582 -138.360157023485 0.000941906080899207 -138.41341661517 
                               0.985297203933933 -24.4369036169613 0.00179277133512621 -130.583080572769 0.000731855835775279 -129.619183899199 0.000617884612870864 -128.639828932166 
                               0.00114475963477867 84.1690716979737 0.00140251642501151 59.7663294895508 0.000796673907349984 96.7090580269013 0.000797735423348511 96.5711127685603 
                               0.00125055898704855 84.4697198236893 0.00235764413768246 61.4867161745763 0.0768152490662775 64.4702636156257 0.00788866881850778 -60.2147570131744 
                               0.00130089295548891 -128.107905943921 0.00130061165287161 -125.825380928876 0.000951285294972772 -138.170028645335 0.000949286231913777 -138.218040256435 
                               0.00179497409547096 -131.180292194693 0.985366084391073 -24.2858725390012 0.00075741675020449 -128.623250881917 0.000700770302689158 -127.855077588887 